<?xml version="1.0" encoding="ISO-8859-1"?>
<modeling>
 <generator>
  <i name="program" type="string">vasp </i>
  <i name="version" type="string">6.3.2  </i>
  <i name="subversion" type="string">27Jun22 (build Aug 17 2022 15:43:34) complex                          parallel </i>
  <i name="platform" type="string">tv2STDVTST </i>
  <i name="date" type="string">2025 02 04 </i>
  <i name="time" type="string">13:38:27 </i>
 </generator>
 <incar>
  <i type="int" name="ISTART">     0</i>
  <i type="string" name="PREC">Normal</i>
  <i type="int" name="ISPIN">     2</i>
  <i type="int" name="ICHARG">     2</i>
  <i type="int" name="IBRION">     2</i>
  <i name="EDIFF">      0.00020000</i>
  <i name="EDIFFG">     -0.03000000</i>
  <i type="int" name="NSW">   800</i>
  <i type="int" name="ISIF">     2</i>
  <i type="int" name="ISYM">     1</i>
  <i name="ENCUT">    400.00000000</i>
  <i name="POTIM">      0.50000000</i>
  <i type="logical" name="LREAL"> F  </i>
  <i type="int" name="ISMEAR">     1</i>
  <i name="SIGMA">      0.20000000</i>
  <i type="logical" name="LWAVE"> F  </i>
  <i type="logical" name="LCHARG"> F  </i>
  <i type="string" name="GGA">PE</i>
  <i type="int" name="IVDW">    11</i>
 </incar>
 <primitive_cell>
  <structure name="primitive_cell" >
   <crystal>
    <varray name="basis" >
     <v>       3.63000011       0.00000000       0.00000000 </v>
     <v>       0.00000000       2.56679773       0.00000000 </v>
     <v>       0.00000000       0.00000000      23.98379135 </v>
    </varray>
    <i name="volume">    223.46840188 </i>
    <varray name="rec_basis" >
     <v>       0.27548208       0.00000000       0.00000000 </v>
     <v>       0.00000000       0.38959050       0.00000000 </v>
     <v>       0.00000000       0.00000000       0.04169483 </v>
    </varray>
   </crystal>
   <varray name="positions" >
    <v>       0.00000000       0.00000000       0.00000000 </v>
    <v>       0.50000000       0.50000000       0.05351109 </v>
    <v>       0.00000000       0.00000000       0.10468148 </v>
    <v>       0.50000000       0.50000000       0.15792996 </v>
    <v>       0.00000000       0.00000000       0.21070899 </v>
    <v>       0.50000000       0.50000000       0.26289048 </v>
    <v>       0.00000000       0.00000000       0.31711592 </v>
    <v>       0.50000000       0.50000000       0.36467590 </v>
    <v>       1.00000000       0.50000000       0.42690792 </v>
    <v>       1.00000000       0.50000000       0.45801226 </v>
   </varray>
  </structure>
  <varray name="primitive_index" >
   <v type="int" >        1 </v>
   <v type="int" >        2 </v>
   <v type="int" >        3 </v>
   <v type="int" >        4 </v>
   <v type="int" >        5 </v>
   <v type="int" >        6 </v>
   <v type="int" >        7 </v>
   <v type="int" >        8 </v>
   <v type="int" >        9 </v>
   <v type="int" >       10 </v>
  </varray>
 </primitive_cell>
 <kpoints>
  <generation param="Monkhorst-Pack">
   <v type="int" name="divisions">       3        3        1 </v>
   <v name="usershift">      0.00000000       0.00000000       0.00000000 </v>
   <v name="genvec1">      0.33333333       0.00000000       0.00000000 </v>
   <v name="genvec2">      0.00000000       0.33333333       0.00000000 </v>
   <v name="genvec3">      0.00000000       0.00000000       1.00000000 </v>
   <v name="shift">      0.00000000       0.00000000       0.00000000 </v>
  </generation>
  <varray name="kpointlist" >
   <v>       0.00000000       0.00000000       0.00000000 </v>
   <v>       0.33333333       0.00000000       0.00000000 </v>
   <v>       0.00000000       0.33333333       0.00000000 </v>
   <v>       0.33333333       0.33333333       0.00000000 </v>
  </varray>
  <varray name="weights" >
   <v>       0.11111111 </v>
   <v>       0.22222222 </v>
   <v>       0.22222222 </v>
   <v>       0.44444444 </v>
  </varray>
 </kpoints>
 <parameters>
  <separator name="general" >
   <i type="string" name="SYSTEM">unknown system</i>
   <i type="logical" name="LCOMPAT"> F  </i>
  </separator>
  <separator name="electronic" >
   <i type="string" name="PREC">normal</i>
   <i name="ENMAX">    400.00000000</i>
   <i name="ENAUG">    586.98000000</i>
   <i name="EDIFF">      0.00020000</i>
   <i type="int" name="IALGO">    38</i>
   <i type="int" name="IWAVPR">    11</i>
   <i type="int" name="NBANDS">    60</i>
   <i type="int" name="NBANDSLOW">    -1</i>
   <i type="int" name="NBANDSHIGH">    -1</i>
   <i name="NELECT">     90.00000000</i>
   <i type="int" name="TURBO">     0</i>
   <i type="int" name="IRESTART">     0</i>
   <i type="int" name="NREBOOT">     0</i>
   <i type="int" name="NMIN">     0</i>
   <i name="EREF">      0.00000000</i>
   <separator name="electronic smearing" >
    <i type="int" name="ISMEAR">     1</i>
    <i name="SIGMA">      0.20000000</i>
    <i name="KSPACING">      0.50000000</i>
    <i type="logical" name="KGAMMA"> T  </i>
    <i type="logical" name="KBLOWUP"> T  </i>
   </separator>
   <separator name="electronic projectors" >
    <i type="logical" name="LREAL"> F  </i>
    <v name="ROPT">      0.00000000      0.00000000</v>
    <i type="int" name="LMAXPAW">  -100</i>
    <i type="int" name="LMAXMIX">     2</i>
    <i type="logical" name="NLSPLINE"> F  </i>
   </separator>
   <separator name="electronic startup" >
    <i type="int" name="ISTART">     0</i>
    <i type="int" name="ICHARG">     2</i>
    <i type="int" name="INIWAV">     1</i>
   </separator>
   <separator name="electronic spin" >
    <i type="int" name="ISPIN">     2</i>
    <i type="logical" name="LNONCOLLINEAR"> F  </i>
    <v name="MAGMOM">      1.00000000      1.00000000      1.00000000      1.00000000      1.00000000      1.00000000      1.00000000      1.00000000      1.00000000      1.00000000</v>
    <i name="NUPDOWN">     -1.00000000</i>
    <i type="logical" name="LSORBIT"> F  </i>
    <v name="SAXIS">      0.00000000      0.00000000      1.00000000</v>
    <i type="logical" name="LSPIRAL"> F  </i>
    <v name="QSPIRAL">      0.00000000      0.00000000      0.00000000</v>
    <i type="logical" name="LZEROZ"> F  </i>
   </separator>
   <separator name="electronic exchange-correlation" >
    <i type="logical" name="LASPH"> F  </i>
    <i type="logical" name="LMETAGGA"> F  </i>
   </separator>
   <separator name="electronic convergence" >
    <i type="int" name="NELM">    60</i>
    <i type="int" name="NELMDL">    -5</i>
    <i type="int" name="NELMIN">     2</i>
    <i name="ENINI">    400.00000000</i>
    <separator name="electronic convergence detail" >
     <i type="logical" name="LDIAG"> T  </i>
     <i type="logical" name="LSUBROT"> F  </i>
     <i name="WEIMIN">      0.00100000</i>
     <i name="EBREAK">      0.00000083</i>
     <i name="DEPER">      0.30000000</i>
     <i type="int" name="NRMM">     4</i>
     <i name="TIME">      0.40000000</i>
    </separator>
   </separator>
   <separator name="electronic mixer" >
    <i name="AMIX">      0.40000000</i>
    <i name="BMIX">      1.00000000</i>
    <i name="AMIN">      0.10000000</i>
    <i name="AMIX_MAG">      1.60000000</i>
    <i name="BMIX_MAG">      1.00000000</i>
    <separator name="electronic mixer details" >
     <i type="int" name="IMIX">     4</i>
     <i type="logical" name="MIXFIRST"> F  </i>
     <i type="int" name="MAXMIX">   -45</i>
     <i name="WC">    100.00000000</i>
     <i type="int" name="INIMIX">     1</i>
     <i type="int" name="MIXPRE">     1</i>
     <i type="int" name="MREMOVE">     5</i>
    </separator>
   </separator>
   <separator name="electronic dipolcorrection" >
    <i type="logical" name="LDIPOL"> F  </i>
    <i type="logical" name="LMONO"> F  </i>
    <i type="int" name="IDIPOL">     0</i>
    <i name="EPSILON">      1.00000000</i>
    <v name="DIPOL">   -100.00000000   -100.00000000   -100.00000000</v>
    <i name="EFIELD">      0.00000000</i>
   </separator>
  </separator>
  <separator name="grids" >
   <i type="int" name="NGX">    18</i>
   <i type="int" name="NGY">    14</i>
   <i type="int" name="NGZ">   120</i>
   <i type="int" name="NGXF">    36</i>
   <i type="int" name="NGYF">    28</i>
   <i type="int" name="NGZF">   240</i>
   <i type="logical" name="ADDGRID"> F  </i>
  </separator>
  <separator name="ionic" >
   <i type="int" name="NSW">   800</i>
   <i type="int" name="IBRION">     2</i>
   <i type="int" name="MDALGO">     0</i>
   <i type="int" name="ISIF">     2</i>
   <i name="PSTRESS">      0.00000000</i>
   <i name="EDIFFG">     -0.03000000</i>
   <i type="int" name="NFREE">     1</i>
   <i name="POTIM">      0.50000000</i>
   <i name="SMASS">     -3.00000000</i>
   <i name="SCALEE">      1.00000000</i>
  </separator>
  <separator name="ionic md" >
   <i name="TEBEG">      0.00010000</i>
   <i name="TEEND">      0.00010000</i>
   <i type="int" name="NBLOCK">     1</i>
   <i type="int" name="KBLOCK">   800</i>
   <i type="int" name="NPACO">   256</i>
   <i name="APACO">     10.00000000</i>
  </separator>
  <separator name="symmetry" >
   <i type="int" name="ISYM">     1</i>
   <i name="SYMPREC">      0.00001000</i>
  </separator>
  <separator name="dos" >
   <i type="int" name="LORBIT">     0</i>
   <v name="RWIGS">     -1.00000000     -1.00000000</v>
   <i type="int" name="NEDOS">   301</i>
   <i name="EMIN">     10.00000000</i>
   <i name="EMAX">    -10.00000000</i>
   <i name="EFERMI">      0.00000000</i>
  </separator>
  <separator name="writing" >
   <i type="int" name="NWRITE">     2</i>
   <i type="logical" name="LWAVE"> F  </i>
   <i type="logical" name="LDOWNSAMPLE"> F  </i>
   <i type="logical" name="LCHARG"> F  </i>
   <i type="logical" name="LPARD"> F  </i>
   <i type="logical" name="LVTOT"> F  </i>
   <i type="logical" name="LVHAR"> F  </i>
   <i type="logical" name="LELF"> F  </i>
   <i type="logical" name="LOPTICS"> F  </i>
   <v name="STM">      0.00000000      0.00000000      0.00000000      0.00000000      0.00000000      0.00000000      0.00000000</v>
  </separator>
  <separator name="performance" >
   <i type="int" name="NPAR">     4</i>
   <i type="int" name="NSIM">     4</i>
   <i type="int" name="NBLK">    -1</i>
   <i type="logical" name="LPLANE"> T  </i>
   <i type="logical" name="LSCALAPACK"> T  </i>
   <i type="logical" name="LSCAAWARE"> F  </i>
   <i type="logical" name="LSCALU"> F  </i>
   <i type="logical" name="LASYNC"> F  </i>
   <i type="logical" name="LORBITALREAL"> F  </i>
  </separator>
  <separator name="miscellaneous" >
   <i type="int" name="IDIOT">     3</i>
   <i type="int" name="PHON_NSTRUCT">    -1</i>
   <i type="logical" name="LMUSIC"> F  </i>
   <v name="POMASS">     63.54600000      1.00000000</v>
   <v name="DARWINR">      0.00000000      0.00000000</v>
   <v name="DARWINV">      1.00000000      1.00000000</v>
   <i type="logical" name="LCORR"> T  </i>
  </separator>
  <i type="logical" name="GGA_COMPAT"> T  </i>
  <i type="logical" name="LBERRY"> F  </i>
  <i type="int" name="ICORELEVEL">     0</i>
  <i type="logical" name="LDAU"> F  </i>
  <i type="int" name="I_CONSTRAINED_M">     0</i>
  <separator name="electronic exchange-correlation" >
   <i type="string" name="GGA">PE</i>
   <i type="int" name="VOSKOWN">     0</i>
   <i type="logical" name="LHFCALC"> F  </i>
   <i type="string" name="PRECFOCK"></i>
   <i type="logical" name="LSYMGRAD"> F  </i>
   <i type="logical" name="LHFONE"> F  </i>
   <i type="logical" name="LRHFCALC"> F  </i>
   <i type="logical" name="LTHOMAS"> F  </i>
   <i type="logical" name="LMODELHF"> F  </i>
   <i type="logical" name="LFOCKACE"> F  </i>
   <i name="ENCUT4O">     -1.00000000</i>
   <i type="int" name="EXXOEP">     0</i>
   <i type="int" name="FOURORBIT">     0</i>
   <i name="AEXX">      0.00000000</i>
   <i name="HFALPHA">      0.00000000</i>
   <i name="MCALPHA">      0.00000000</i>
   <i name="ALDAX">      1.00000000</i>
   <i name="AGGAX">      1.00000000</i>
   <i name="ALDAC">      1.00000000</i>
   <i name="AGGAC">      1.00000000</i>
   <i type="int" name="NKREDX">     1</i>
   <i type="int" name="NKREDY">     1</i>
   <i type="int" name="NKREDZ">     1</i>
   <i type="logical" name="SHIFTRED"> F  </i>
   <i type="logical" name="ODDONLY"> F  </i>
   <i type="logical" name="EVENONLY"> F  </i>
   <i type="int" name="LMAXFOCK">     0</i>
   <i type="int" name="NMAXFOCKAE">     0</i>
   <i type="logical" name="LFOCKAEDFT"> F  </i>
   <i name="HFSCREEN">      0.00000000</i>
   <i name="HFSCREENC">      0.00000000</i>
   <i type="int" name="NBANDSGWLOW">     0</i>
  </separator>
  <separator name="vdW DFT" >
   <i type="logical" name="LUSE_VDW"> F  </i>
   <i name="Zab_VDW">     -0.84910000</i>
   <i name="PARAM1">      0.12340000</i>
   <i name="PARAM2">      1.00000000</i>
   <i name="PARAM3">      0.00000000</i>
  </separator>
  <separator name="model GW" >
   <i type="int" name="MODEL_GW">     0</i>
   <i name="MODEL_EPS0">     13.40810411</i>
   <i name="MODEL_ALPHA">      1.00000000</i>
  </separator>
  <separator name="linear response parameters" >
   <i type="logical" name="LEPSILON"> F  </i>
   <i type="logical" name="LRPA"> F  </i>
   <i type="logical" name="LNABLA"> F  </i>
   <i type="logical" name="LVEL"> F  </i>
   <i name="CSHIFT">      0.10000000</i>
   <i name="OMEGAMAX">     -1.00000000</i>
   <i name="DEG_THRESHOLD">      0.00200000</i>
   <i name="RTIME">     -0.10000000</i>
   <i name="WPLASMAI">      0.00000000</i>
   <v name="DFIELD">      0.00000000      0.00000000      0.00000000</v>
   <v name="WPLASMA">      0.00000000      0.00000000      0.00000000      0.00000000      0.00000000      0.00000000      0.00000000      0.00000000      0.00000000</v>
  </separator>
  <separator name="orbital magnetization" >
   <i type="logical" name="NUCIND"> F  </i>
   <v name="MAGPOS">      0.00000000      0.00000000      0.00000000</v>
   <i type="logical" name="LNICSALL"> T  </i>
   <i type="logical" name="ORBITALMAG"> F  </i>
   <i type="logical" name="LMAGBLOCH"> F  </i>
   <i type="logical" name="LCHIMAG"> F  </i>
   <i type="logical" name="LGAUGE"> T  </i>
   <i type="int" name="MAGATOM">     0</i>
   <v name="MAGDIPOL">      0.00000000      0.00000000      0.00000000</v>
   <v name="AVECCONST">      0.00000000      0.00000000      0.00000000</v>
  </separator>
  <separator name="response functions" >
   <i type="logical" name="LFINITE_TEMPERATURE"> F  </i>
   <i type="logical" name="LADDER"> F  </i>
   <i type="logical" name="LRPAFORCE"> F  </i>
   <i type="logical" name="LFXC"> F  </i>
   <i type="logical" name="LHARTREE"> T  </i>
   <i type="int" name="IBSE">     0</i>
   <v type="int" name="KPOINT">    -1     0     0     0</v>
   <i type="logical" name="LTCTC"> F  </i>
   <i type="logical" name="LTCTE"> F  </i>
   <i type="logical" name="LTETE"> F  </i>
   <i type="logical" name="LTRIPLET"> F  </i>
   <i type="logical" name="LFXCEPS"> F  </i>
   <i type="logical" name="LFXHEG"> F  </i>
   <i type="int" name="NATURALO">     2</i>
   <i type="logical" name="LHOLEGF"> F  </i>
   <i type="logical" name="L2ORDER"> F  </i>
   <i type="logical" name="LDMP1"> F  </i>
   <i type="logical" name="LMP2LT"> F  </i>
   <i type="logical" name="LSMP2LT"> F  </i>
   <i type="logical" name="LGWLF"> F  </i>
   <i name="ENCUTGW">     -2.00000000</i>
   <i name="ENCUTGWSOFT">     -2.00000000</i>
   <i name="ENCUTLF">     -1.00000000</i>
   <i type="logical" name="LESF_SPLINES"> F  </i>
   <i type="int" name="LMAXMP2">    -1</i>
   <i name="SCISSOR">      0.00000000</i>
   <i type="int" name="NOMEGA">     0</i>
   <i type="int" name="NOMEGAR">     0</i>
   <i type="int" name="NBANDSGW">    -1</i>
   <i type="int" name="NBANDSO">    -1</i>
   <i type="int" name="NBANDSV">    -1</i>
   <i type="int" name="NELMGW">     1</i>
   <i type="int" name="NELMHF">     1</i>
   <i type="int" name="DIM">     3</i>
   <i type="int" name="IESPILON">     4</i>
   <i type="int" name="ANTIRES">     0</i>
   <i name="OMEGAMAX">    -30.00000000</i>
   <i name="OMEGAMIN">    -30.00000000</i>
   <i name="OMEGATL">   -200.00000000</i>
   <i type="int" name="OMEGAGRID">     0</i>
   <i name="CSHIFT">     -0.10000000</i>
   <i type="logical" name="LSELFENERGY"> F  </i>
   <i type="logical" name="LSPECTRAL"> F  </i>
   <i type="logical" name="LSPECTRALGW"> F  </i>
   <i type="logical" name="LSINGLES"> F  </i>
   <i type="logical" name="LFERMIGW"> F  </i>
   <i type="logical" name="ODDONLYGW"> F  </i>
   <i type="logical" name="EVENONLYGW"> F  </i>
   <i type="int" name="NKREDLFX">     1</i>
   <i type="int" name="NKREDLFY">     1</i>
   <i type="int" name="NKREDLFZ">     1</i>
   <i type="int" name="MAXMEM">  2800</i>
   <i type="int" name="TELESCOPE">     0</i>
   <i type="int" name="NTAUPAR">    -1</i>
   <i type="int" name="NOMEGAPAR">    -1</i>
   <i name="DAMP_NEWTON">      0.80000001</i>
   <i name="LAMBDA">      1.00000000</i>
  </separator>
  <separator name="External order field" >
   <i name="OFIELD_KAPPA">      0.00000000</i>
   <v name="OFIELD_K">      0.00000000      0.00000000      0.00000000</v>
   <i name="OFIELD_Q6_NEAR">      0.00000000</i>
   <i name="OFIELD_Q6_FAR">      0.00000000</i>
   <i name="OFIELD_A">      0.00000000</i>
  </separator>
  <separator name="optional k-points parameters" >
   <i type="int" name="KPOINTS_OPT_MODE">     1</i>
   <i type="logical" name="LKPOINTS_OPT"> F  </i>
  </separator>
 </parameters>
 <atominfo>
  <atoms>      10 </atoms>
  <types>       2 </types>
  <array name="atoms" >
   <dimension dim="1">ion</dimension>
   <field type="string">element</field>
   <field type="int">atomtype</field>
   <set>
    <rc><c>Cu</c><c>   1</c></rc>
    <rc><c>Cu</c><c>   1</c></rc>
    <rc><c>Cu</c><c>   1</c></rc>
    <rc><c>Cu</c><c>   1</c></rc>
    <rc><c>Cu</c><c>   1</c></rc>
    <rc><c>Cu</c><c>   1</c></rc>
    <rc><c>Cu</c><c>   1</c></rc>
    <rc><c>Cu</c><c>   1</c></rc>
    <rc><c>H </c><c>   2</c></rc>
    <rc><c>H </c><c>   2</c></rc>
   </set>
  </array>
  <array name="atomtypes" >
   <dimension dim="1">type</dimension>
   <field type="int">atomspertype</field>
   <field type="string">element</field>
   <field>mass</field>
   <field>valence</field>
   <field type="string">pseudopotential</field>
   <set>
    <rc><c>   8</c><c>Cu</c><c>     63.54600000</c><c>     11.00000000</c><c>  PAW_PBE Cu 22Jun2005                  </c></rc>
    <rc><c>   2</c><c>H </c><c>      1.00000000</c><c>      1.00000000</c><c>  PAW_PBE H 15Jun2001                   </c></rc>
   </set>
  </array>
 </atominfo>
 <structure name="initialpos" >
  <crystal>
   <varray name="basis" >
    <v>       3.63000011       0.00000000       0.00000000 </v>
    <v>       0.00000000       2.56679773       0.00000000 </v>
    <v>       0.00000000       0.00000000      23.98379135 </v>
   </varray>
   <i name="volume">    223.46840188 </i>
   <varray name="rec_basis" >
    <v>       0.27548208       0.00000000       0.00000000 </v>
    <v>       0.00000000       0.38959050       0.00000000 </v>
    <v>       0.00000000       0.00000000       0.04169483 </v>
   </varray>
  </crystal>
  <varray name="positions" >
   <v>       0.00000000       0.00000000       0.00000000 </v>
   <v>       0.50000000       0.50000000       0.05351109 </v>
   <v>       0.00000000       0.00000000       0.10468148 </v>
   <v>       0.50000000       0.50000000       0.15792996 </v>
   <v>       0.00000000       0.00000000       0.21070899 </v>
   <v>       0.50000000       0.50000000       0.26289048 </v>
   <v>       0.00000000       0.00000000       0.31711592 </v>
   <v>       0.50000000       0.50000000       0.36467590 </v>
   <v>       1.00000000       0.50000000       0.42690792 </v>
   <v>       1.00000000       0.50000000       0.45801226 </v>
  </varray>
 </structure>
 <calculation>
  <scstep>
   <time name="dav">    0.32    0.32</time>
   <time name="total">    0.35    0.35</time>
   <energy>
    <i name="alphaZ">    216.17040255 </i>
    <i name="ewald">  42197.23368745 </i>
    <i name="hartreedc"> -53021.01241060 </i>
    <i name="XCdc">    371.21362558 </i>
    <i name="pawpsdc">   9828.36862813 </i>
    <i name="pawaedc"> -10674.97285505 </i>
    <i name="eentropy">     -0.00625059 </i>
    <i name="bandstr">    701.51192338 </i>
    <i name="atom">  11152.61838693 </i>
    <i name="e_fr_energy">    771.12513779 </i>
    <i name="e_wo_entrp">    771.13138837 </i>
    <i name="e_0_energy">    771.12722131 </i>
   </energy>
  </scstep>
  <scstep>
   <time name="dav">    0.31    0.31</time>
   <time name="total">    0.31    0.31</time>
   <energy>
    <i name="e_fr_energy">     58.15827511 </i>
    <i name="e_wo_entrp">     58.15902308 </i>
    <i name="e_0_energy">     58.15852444 </i>
   </energy>
  </scstep>
  <scstep>
   <time name="dav">    0.31    0.31</time>
   <time name="total">    0.31    0.31</time>
   <energy>
    <i name="e_fr_energy">    -30.90972254 </i>
    <i name="e_wo_entrp">    -30.90775796 </i>
    <i name="e_0_energy">    -30.90906768 </i>
   </energy>
  </scstep>
  <scstep>
   <time name="dav">    0.35    0.35</time>
   <time name="total">    0.35    0.35</time>
   <energy>
    <i name="e_fr_energy">    -34.64457237 </i>
    <i name="e_wo_entrp">    -34.63988519 </i>
    <i name="e_0_energy">    -34.64300998 </i>
   </energy>
  </scstep>
  <scstep>
   <time name="dav">    0.34    0.34</time>
   <time name="total">    0.40    0.40</time>
   <energy>
    <i name="e_fr_energy">    -34.73003644 </i>
    <i name="e_wo_entrp">    -34.72527009 </i>
    <i name="e_0_energy">    -34.72844766 </i>
   </energy>
  </scstep>
  <scstep>
   <time name="dav">    0.33    0.34</time>
   <time name="total">    0.41    0.42</time>
   <energy>
    <i name="e_fr_energy">    -29.46758101 </i>
    <i name="e_wo_entrp">    -29.46157348 </i>
    <i name="e_0_energy">    -29.46557850 </i>
   </energy>
  </scstep>
  <scstep>
   <time name="dav">    0.35    0.35</time>
   <time name="total">    0.42    0.43</time>
   <energy>
    <i name="e_fr_energy">    -26.85273624 </i>
    <i name="e_wo_entrp">    -26.83318357 </i>
    <i name="e_0_energy">    -26.84621868 </i>
   </energy>
  </scstep>
  <scstep>
   <time name="dav">    0.38    0.39</time>
   <time name="total">    0.46    0.46</time>
   <energy>
    <i name="e_fr_energy">    -26.38567685 </i>
    <i name="e_wo_entrp">    -26.37609748 </i>
    <i name="e_0_energy">    -26.38248373 </i>
   </energy>
  </scstep>
  <scstep>
   <time name="dav">    0.46    0.46</time>
   <time name="total">    0.53    0.54</time>
   <energy>
    <i name="e_fr_energy">    -25.77746146 </i>
    <i name="e_wo_entrp">    -25.76788171 </i>
    <i name="e_0_energy">    -25.77426821 </i>
   </energy>
  </scstep>
  <scstep>
   <time name="dav">    0.39    0.39</time>
   <time name="total">    0.47    0.47</time>
   <energy>
    <i name="e_fr_energy">    -26.47744019 </i>
    <i name="e_wo_entrp">    -26.47166985 </i>
    <i name="e_0_energy">    -26.47551674 </i>
   </energy>
  </scstep>
  <scstep>
   <time name="dav">    0.37    0.38</time>
   <time name="total">    0.45    0.45</time>
   <energy>
    <i name="e_fr_energy">    -28.06256556 </i>
    <i name="e_wo_entrp">    -28.05245064 </i>
    <i name="e_0_energy">    -28.05919392 </i>
   </energy>
  </scstep>
  <scstep>
   <time name="dav">    0.36    0.37</time>
   <time name="total">    0.44    0.44</time>
   <energy>
    <i name="e_fr_energy">    -29.17566311 </i>
    <i name="e_wo_entrp">    -29.16293212 </i>
    <i name="e_0_energy">    -29.17141945 </i>
   </energy>
  </scstep>
  <scstep>
   <time name="dav">    0.38    0.38</time>
   <time name="total">    0.45    0.46</time>
   <energy>
    <i name="e_fr_energy">    -31.80349079 </i>
    <i name="e_wo_entrp">    -31.79329458 </i>
    <i name="e_0_energy">    -31.80009206 </i>
   </energy>
  </scstep>
  <scstep>
   <time name="dav">    0.37    0.37</time>
   <time name="total">    0.45    0.45</time>
   <energy>
    <i name="e_fr_energy">    -33.81585648 </i>
    <i name="e_wo_entrp">    -33.80415225 </i>
    <i name="e_0_energy">    -33.81195507 </i>
   </energy>
  </scstep>
  <scstep>
   <time name="dav">    0.34    0.34</time>
   <time name="total">    0.41    0.42</time>
   <energy>
    <i name="e_fr_energy">    -34.42768340 </i>
    <i name="e_wo_entrp">    -34.42306481 </i>
    <i name="e_0_energy">    -34.42614387 </i>
   </energy>
  </scstep>
  <scstep>
   <time name="dav">    0.34    0.34</time>
   <time name="total">    0.42    0.42</time>
   <energy>
    <i name="e_fr_energy">    -34.64764120 </i>
    <i name="e_wo_entrp">    -34.64706275 </i>
    <i name="e_0_energy">    -34.64744838 </i>
   </energy>
  </scstep>
  <scstep>
   <time name="dav">    0.36    0.36</time>
   <time name="total">    0.43    0.44</time>
   <energy>
    <i name="e_fr_energy">    -34.83700689 </i>
    <i name="e_wo_entrp">    -34.83830835 </i>
    <i name="e_0_energy">    -34.83744071 </i>
   </energy>
  </scstep>
  <scstep>
   <time name="dav">    0.35    0.35</time>
   <time name="total">    0.42    0.42</time>
   <energy>
    <i name="e_fr_energy">    -34.89689532 </i>
    <i name="e_wo_entrp">    -34.89776492 </i>
    <i name="e_0_energy">    -34.89718519 </i>
   </energy>
  </scstep>
  <scstep>
   <time name="dav">    0.35    0.35</time>
   <time name="total">    0.42    0.43</time>
   <energy>
    <i name="e_fr_energy">    -34.96940511 </i>
    <i name="e_wo_entrp">    -34.96926076 </i>
    <i name="e_0_energy">    -34.96935699 </i>
   </energy>
  </scstep>
  <scstep>
   <time name="dav">    0.36    0.36</time>
   <time name="total">    0.43    0.43</time>
   <energy>
    <i name="e_fr_energy">    -35.01085268 </i>
    <i name="e_wo_entrp">    -35.01020364 </i>
    <i name="e_0_energy">    -35.01063633 </i>
   </energy>
  </scstep>
  <scstep>
   <time name="dav">    0.36    0.36</time>
   <time name="total">    0.43    0.44</time>
   <energy>
    <i name="e_fr_energy">    -35.04562504 </i>
    <i name="e_wo_entrp">    -35.04468029 </i>
    <i name="e_0_energy">    -35.04531012 </i>
   </energy>
  </scstep>
  <scstep>
   <time name="dav">    0.31    0.31</time>
   <time name="total">    0.39    0.39</time>
   <energy>
    <i name="e_fr_energy">    -35.09725619 </i>
    <i name="e_wo_entrp">    -35.09594322 </i>
    <i name="e_0_energy">    -35.09681853 </i>
   </energy>
  </scstep>
  <scstep>
   <time name="dav">    0.31    0.31</time>
   <time name="total">    0.38    0.38</time>
   <energy>
    <i name="e_fr_energy">    -35.15624428 </i>
    <i name="e_wo_entrp">    -35.15465424 </i>
    <i name="e_0_energy">    -35.15571427 </i>
   </energy>
  </scstep>
  <scstep>
   <time name="dav">    0.30    0.30</time>
   <time name="total">    0.38    0.38</time>
   <energy>
    <i name="e_fr_energy">    -35.18967467 </i>
    <i name="e_wo_entrp">    -35.18798937 </i>
    <i name="e_0_energy">    -35.18911290 </i>
   </energy>
  </scstep>
  <scstep>
   <time name="dav">    0.26    0.26</time>
   <time name="total">    0.33    0.34</time>
   <energy>
    <i name="e_fr_energy">    -35.20135579 </i>
    <i name="e_wo_entrp">    -35.19953949 </i>
    <i name="e_0_energy">    -35.20075036 </i>
   </energy>
  </scstep>
  <scstep>
   <time name="dav">    0.28    0.28</time>
   <time name="total">    0.36    0.36</time>
   <energy>
    <i name="e_fr_energy">    -35.20697997 </i>
    <i name="e_wo_entrp">    -35.20508233 </i>
    <i name="e_0_energy">    -35.20634742 </i>
   </energy>
  </scstep>
  <scstep>
   <time name="dav">    0.26    0.26</time>
   <time name="total">    0.33    0.34</time>
   <energy>
    <i name="e_fr_energy">    -35.20781060 </i>
    <i name="e_wo_entrp">    -35.20588162 </i>
    <i name="e_0_energy">    -35.20716761 </i>
   </energy>
  </scstep>
  <scstep>
   <time name="dav">    0.24    0.25</time>
   <time name="total">    0.27    0.27</time>
   <energy>
    <i name="alphaZ">    216.17040255 </i>
    <i name="ewald">  42197.23368745 </i>
    <i name="hartreedc"> -52937.55634677 </i>
    <i name="XCdc">    362.14883891 </i>
    <i name="pawpsdc">  10503.26377892 </i>
    <i name="pawaedc"> -11364.83716137 </i>
    <i name="eentropy">     -0.00195115 </i>
    <i name="bandstr">   -164.24748592 </i>
    <i name="atom">  11152.61838693 </i>
    <i name="e_fr_energy">    -35.20785045 </i>
    <i name="e_wo_entrp">    -35.20589931 </i>
    <i name="e_0_energy">    -35.20720007 </i>
   </energy>
  </scstep>
  <structure>
   <crystal>
    <varray name="basis" >
     <v>       3.63000011       0.00000000       0.00000000 </v>
     <v>       0.00000000       2.56679773       0.00000000 </v>
     <v>       0.00000000       0.00000000      23.98379135 </v>
    </varray>
    <i name="volume">    223.46840188 </i>
    <varray name="rec_basis" >
     <v>       0.27548208       0.00000000       0.00000000 </v>
     <v>       0.00000000       0.38959050       0.00000000 </v>
     <v>       0.00000000       0.00000000       0.04169483 </v>
    </varray>
   </crystal>
   <varray name="positions" >
    <v>       0.00000000       0.00000000       0.00000000 </v>
    <v>       0.50000000       0.50000000       0.05351109 </v>
    <v>       0.00000000       0.00000000       0.10468148 </v>
    <v>       0.50000000       0.50000000       0.15792996 </v>
    <v>       0.00000000       0.00000000       0.21070899 </v>
    <v>       0.50000000       0.50000000       0.26289048 </v>
    <v>       0.00000000       0.00000000       0.31711592 </v>
    <v>       0.50000000       0.50000000       0.36467590 </v>
    <v>       1.00000000       0.50000000       0.42690792 </v>
    <v>       1.00000000       0.50000000       0.45801226 </v>
   </varray>
  </structure>
  <varray name="forces" >
   <v>       0.00000000       0.00000000       0.51182348 </v>
   <v>       0.00000000       0.00000000      -0.47368298 </v>
   <v>       0.00000000       0.00000000      -0.00507931 </v>
   <v>       0.00000000       0.00000000       0.05845691 </v>
   <v>       0.00000000       0.00000000      -0.09627788 </v>
   <v>       0.00000000       0.00000000       0.01670083 </v>
   <v>       0.00000000       0.00000000      -0.04404384 </v>
   <v>       0.00000000       0.00000000      -0.21617093 </v>
   <v>       0.00000000       0.00000000      -0.53293120 </v>
   <v>       0.00000000       0.00000000       0.78120493 </v>
  </varray>
  <varray name="stress" >
   <v>     -39.47107951       0.00000000       0.00000000 </v>
   <v>       0.00000000     -34.70018259       0.00000000 </v>
   <v>       0.00000000       0.00000000      -4.33933275 </v>
  </varray>
  <energy>
   <i name="e_fr_energy">    -38.44307527 </i>
   <i name="e_wo_entrp">    -38.44112412 </i>
   <i name="e_0_energy">    -38.44242488 </i>
  </energy>
  <time name="totalsc">   11.69   11.80</time>
 </calculation>
 <calculation>
  <scstep>
   <time name="dav">    0.32    0.32</time>
   <time name="total">    0.39    0.40</time>
   <energy>
    <i name="alphaZ">    216.17040255 </i>
    <i name="ewald">  42281.21449050 </i>
    <i name="hartreedc"> -53022.29774837 </i>
    <i name="XCdc">    362.14485281 </i>
    <i name="pawpsdc">  10503.16487894 </i>
    <i name="pawaedc"> -11364.73143171 </i>
    <i name="eentropy">     -0.00029163 </i>
    <i name="bandstr">   -163.48332447 </i>
    <i name="atom">  11152.61838693 </i>
    <i name="e_fr_energy">    -35.19978446 </i>
    <i name="e_wo_entrp">    -35.19949283 </i>
    <i name="e_0_energy">    -35.19968725 </i>
   </energy>
  </scstep>
  <scstep>
   <time name="dav">    0.39    0.39</time>
   <time name="total">    0.46    0.47</time>
   <energy>
    <i name="e_fr_energy">    -35.21246177 </i>
    <i name="e_wo_entrp">    -35.21158985 </i>
    <i name="e_0_energy">    -35.21217113 </i>
   </energy>
  </scstep>
  <scstep>
   <time name="dav">    0.34    0.34</time>
   <time name="total">    0.41    0.41</time>
   <energy>
    <i name="e_fr_energy">    -35.21088493 </i>
    <i name="e_wo_entrp">    -35.21064355 </i>
    <i name="e_0_energy">    -35.21080447 </i>
   </energy>
  </scstep>
  <scstep>
   <time name="dav">    0.41    0.42</time>
   <time name="total">    0.49    0.49</time>
   <energy>
    <i name="e_fr_energy">    -35.21022451 </i>
    <i name="e_wo_entrp">    -35.20966611 </i>
    <i name="e_0_energy">    -35.21003837 </i>
   </energy>
  </scstep>
  <scstep>
   <time name="dav">    0.41    0.42</time>
   <time name="total">    0.49    0.49</time>
   <energy>
    <i name="e_fr_energy">    -35.21007292 </i>
    <i name="e_wo_entrp">    -35.20977793 </i>
    <i name="e_0_energy">    -35.20997459 </i>
   </energy>
  </scstep>
  <scstep>
   <time name="dav">    0.29    0.29</time>
   <time name="total">    0.37    0.37</time>
   <energy>
    <i name="e_fr_energy">    -35.21005234 </i>
    <i name="e_wo_entrp">    -35.20988433 </i>
    <i name="e_0_energy">    -35.20999634 </i>
   </energy>
  </scstep>
  <scstep>
   <time name="dav">    0.24    0.24</time>
   <time name="total">    0.26    0.26</time>
   <energy>
    <i name="alphaZ">    216.17040255 </i>
    <i name="ewald">  42281.21449050 </i>
    <i name="hartreedc"> -53019.42343485 </i>
    <i name="XCdc">    362.04518417 </i>
    <i name="pawpsdc">  10504.55437410 </i>
    <i name="pawaedc"> -11366.19033554 </i>
    <i name="eentropy">     -0.00029209 </i>
    <i name="bandstr">   -166.19879967 </i>
    <i name="atom">  11152.61838693 </i>
    <i name="e_fr_energy">    -35.21002390 </i>
    <i name="e_wo_entrp">    -35.20973181 </i>
    <i name="e_0_energy">    -35.20992654 </i>
   </energy>
  </scstep>
  <structure>
   <crystal>
    <varray name="basis" >
     <v>       3.63000011       0.00000000       0.00000000 </v>
     <v>       0.00000000       2.56679773       0.00000000 </v>
     <v>       0.00000000       0.00000000      23.98379135 </v>
    </varray>
    <i name="volume">    223.46840188 </i>
    <varray name="rec_basis" >
     <v>       0.27548208       0.00000000       0.00000000 </v>
     <v>       0.00000000       0.38959050       0.00000000 </v>
     <v>       0.00000000       0.00000000       0.04169483 </v>
    </varray>
   </crystal>
   <varray name="positions" >
    <v>       0.00000000       0.00000000       0.00102952 </v>
    <v>       0.50000000       0.50000000       0.05255829 </v>
    <v>       0.00000000       0.00000000       0.10467126 </v>
    <v>       0.50000000       0.50000000       0.15804754 </v>
    <v>       0.00000000       0.00000000       0.21051533 </v>
    <v>       0.50000000       0.50000000       0.26292407 </v>
    <v>       0.00000000       0.00000000       0.31702732 </v>
    <v>       0.50000000       0.50000000       0.36424108 </v>
    <v>       1.00000000       0.50000000       0.42583595 </v>
    <v>       1.00000000       0.50000000       0.45958363 </v>
   </varray>
  </structure>
  <varray name="forces" >
   <v>       0.00000000       0.00000000       0.33999168 </v>
   <v>       0.00000000       0.00000000      -0.27937316 </v>
   <v>       0.00000000       0.00000000       0.01447823 </v>
   <v>       0.00000000       0.00000000      -0.01469823 </v>
   <v>       0.00000000       0.00000000      -0.07178015 </v>
   <v>       0.00000000       0.00000000      -0.02484432 </v>
   <v>       0.00000000       0.00000000      -0.04819066 </v>
   <v>       0.00000000       0.00000000      -0.10966962 </v>
   <v>       0.00000000       0.00000000       0.82974823 </v>
   <v>       0.00000000       0.00000000      -0.63566200 </v>
  </varray>
  <varray name="stress" >
   <v>     -37.99456662       0.00000000       0.00000000 </v>
   <v>       0.00000000     -33.20145859       0.00000000 </v>
   <v>       0.00000000       0.00000000     -10.86948272 </v>
  </varray>
  <energy>
   <i name="e_fr_energy">    -38.45644910 </i>
   <i name="e_wo_entrp">    -38.45615702 </i>
   <i name="e_0_energy">    -38.45635174 </i>
  </energy>
  <time name="totalsc">    3.35    3.42</time>
 </calculation>
 <calculation>
  <scstep>
   <time name="dav">    0.33    0.33</time>
   <time name="total">    0.40    0.41</time>
   <energy>
    <i name="alphaZ">    216.17040255 </i>
    <i name="ewald">  42248.02451250 </i>
    <i name="hartreedc"> -52985.88820073 </i>
    <i name="XCdc">    362.04712233 </i>
    <i name="pawpsdc">  10504.66073728 </i>
    <i name="pawaedc"> -11366.30216697 </i>
    <i name="eentropy">     -0.00090359 </i>
    <i name="bandstr">   -166.55150987 </i>
    <i name="atom">  11152.61838693 </i>
    <i name="e_fr_energy">    -35.22161958 </i>
    <i name="e_wo_entrp">    -35.22071598 </i>
    <i name="e_0_energy">    -35.22131838 </i>
   </energy>
  </scstep>
  <scstep>
   <time name="dav">    0.38    0.39</time>
   <time name="total">    0.46    0.46</time>
   <energy>
    <i name="e_fr_energy">    -35.22364935 </i>
    <i name="e_wo_entrp">    -35.22291150 </i>
    <i name="e_0_energy">    -35.22340340 </i>
   </energy>
  </scstep>
  <scstep>
   <time name="dav">    0.34    0.34</time>
   <time name="total">    0.42    0.42</time>
   <energy>
    <i name="e_fr_energy">    -35.22351588 </i>
    <i name="e_wo_entrp">    -35.22256703 </i>
    <i name="e_0_energy">    -35.22319960 </i>
   </energy>
  </scstep>
  <scstep>
   <time name="dav">    0.26    0.26</time>
   <time name="total">    0.28    0.28</time>
   <energy>
    <i name="alphaZ">    216.17040255 </i>
    <i name="ewald">  42248.02451250 </i>
    <i name="hartreedc"> -52986.83674879 </i>
    <i name="XCdc">    362.08764356 </i>
    <i name="pawpsdc">  10504.24885434 </i>
    <i name="pawaedc"> -11365.91497008 </i>
    <i name="eentropy">     -0.00088651 </i>
    <i name="bandstr">   -165.62062880 </i>
    <i name="atom">  11152.61838693 </i>
    <i name="e_fr_energy">    -35.22343432 </i>
    <i name="e_wo_entrp">    -35.22254781 </i>
    <i name="e_0_energy">    -35.22313882 </i>
   </energy>
  </scstep>
  <structure>
   <crystal>
    <varray name="basis" >
     <v>       3.63000011       0.00000000       0.00000000 </v>
     <v>       0.00000000       2.56679773       0.00000000 </v>
     <v>       0.00000000       0.00000000      23.98379135 </v>
    </varray>
    <i name="volume">    223.46840188 </i>
    <varray name="rec_basis" >
     <v>       0.27548208       0.00000000       0.00000000 </v>
     <v>       0.00000000       0.38959050       0.00000000 </v>
     <v>       0.00000000       0.00000000       0.04169483 </v>
    </varray>
   </crystal>
   <varray name="positions" >
    <v>       0.00000000       0.00000000       0.00062311 </v>
    <v>       0.50000000       0.50000000       0.05293442 </v>
    <v>       0.00000000       0.00000000       0.10467529 </v>
    <v>       0.50000000       0.50000000       0.15800112 </v>
    <v>       0.00000000       0.00000000       0.21059178 </v>
    <v>       0.50000000       0.50000000       0.26291081 </v>
    <v>       0.00000000       0.00000000       0.31706230 </v>
    <v>       0.50000000       0.50000000       0.36441273 </v>
    <v>       1.00000000       0.50000000       0.42625912 </v>
    <v>       1.00000000       0.50000000       0.45896332 </v>
   </varray>
  </structure>
  <varray name="forces" >
   <v>       0.00000000       0.00000000       0.44915882 </v>
   <v>       0.00000000       0.00000000      -0.39597295 </v>
   <v>       0.00000000       0.00000000       0.01520778 </v>
   <v>       0.00000000       0.00000000       0.03341716 </v>
   <v>       0.00000000       0.00000000      -0.08211431 </v>
   <v>       0.00000000       0.00000000       0.00563135 </v>
   <v>       0.00000000       0.00000000      -0.05158376 </v>
   <v>       0.00000000       0.00000000      -0.18529899 </v>
   <v>       0.00000000       0.00000000       0.47198115 </v>
   <v>       0.00000000       0.00000000      -0.26042626 </v>
  </varray>
  <varray name="stress" >
   <v>     -40.70828546       0.00000000       0.00000000 </v>
   <v>       0.00000000     -35.92349813       0.00000000 </v>
   <v>       0.00000000       0.00000000     -11.33756403 </v>
  </varray>
  <energy>
   <i name="e_fr_energy">    -38.46278079 </i>
   <i name="e_wo_entrp">    -38.46189427 </i>
   <i name="e_0_energy">    -38.46248528 </i>
  </energy>
  <time name="totalsc">    2.05    2.16</time>
 </calculation>
 <calculation>
  <scstep>
   <time name="dav">    0.32    0.33</time>
   <time name="total">    0.40    0.40</time>
   <energy>
    <i name="alphaZ">    216.17040255 </i>
    <i name="ewald">  42358.71926434 </i>
    <i name="hartreedc"> -53097.14327012 </i>
    <i name="XCdc">    362.15348468 </i>
    <i name="pawpsdc">  10504.10691520 </i>
    <i name="pawaedc"> -11365.73731709 </i>
    <i name="eentropy">      0.00087371 </i>
    <i name="bandstr">   -166.11499593 </i>
    <i name="atom">  11152.61838693 </i>
    <i name="e_fr_energy">    -35.22625574 </i>
    <i name="e_wo_entrp">    -35.22712945 </i>
    <i name="e_0_energy">    -35.22654698 </i>
   </energy>
  </scstep>
  <scstep>
   <time name="dav">    0.42    0.42</time>
   <time name="total">    0.49    0.50</time>
   <energy>
    <i name="e_fr_energy">    -35.24662645 </i>
    <i name="e_wo_entrp">    -35.24717766 </i>
    <i name="e_0_energy">    -35.24681018 </i>
   </energy>
  </scstep>
  <scstep>
   <time name="dav">    0.33    0.33</time>
   <time name="total">    0.41    0.41</time>
   <energy>
    <i name="e_fr_energy">    -35.24463522 </i>
    <i name="e_wo_entrp">    -35.24537601 </i>
    <i name="e_0_energy">    -35.24488215 </i>
   </energy>
  </scstep>
  <scstep>
   <time name="dav">    0.33    0.33</time>
   <time name="total">    0.40    0.40</time>
   <energy>
    <i name="e_fr_energy">    -35.24459425 </i>
    <i name="e_wo_entrp">    -35.24543157 </i>
    <i name="e_0_energy">    -35.24487336 </i>
   </energy>
  </scstep>
  <scstep>
   <time name="dav">    0.32    0.32</time>
   <time name="total">    0.34    0.34</time>
   <energy>
    <i name="alphaZ">    216.17040255 </i>
    <i name="ewald">  42358.71926434 </i>
    <i name="hartreedc"> -53096.57721759 </i>
    <i name="XCdc">    362.13289013 </i>
    <i name="pawpsdc">  10509.96352224 </i>
    <i name="pawaedc"> -11371.59558136 </i>
    <i name="eentropy">      0.00074800 </i>
    <i name="bandstr">   -166.67684490 </i>
    <i name="atom">  11152.61838693 </i>
    <i name="e_fr_energy">    -35.24442968 </i>
    <i name="e_wo_entrp">    -35.24517768 </i>
    <i name="e_0_energy">    -35.24467901 </i>
   </energy>
  </scstep>
  <structure>
   <crystal>
    <varray name="basis" >
     <v>       3.63000011       0.00000000       0.00000000 </v>
     <v>       0.00000000       2.56679773       0.00000000 </v>
     <v>       0.00000000       0.00000000      23.98379135 </v>
    </varray>
    <i name="volume">    223.46840188 </i>
    <varray name="rec_basis" >
     <v>       0.27548208       0.00000000       0.00000000 </v>
     <v>       0.00000000       0.38959050       0.00000000 </v>
     <v>       0.00000000       0.00000000       0.04169483 </v>
    </varray>
   </crystal>
   <varray name="positions" >
    <v>       0.00000000       0.00000000       0.00190203 </v>
    <v>       0.50000000       0.50000000       0.05178733 </v>
    <v>       0.00000000       0.00000000       0.10469903 </v>
    <v>       0.50000000       0.50000000       0.15811406 </v>
    <v>       0.00000000       0.00000000       0.21035561 </v>
    <v>       0.50000000       0.50000000       0.26293582 </v>
    <v>       0.00000000       0.00000000       0.31692828 </v>
    <v>       0.50000000       0.50000000       0.36388073 </v>
    <v>       1.00000000       0.50000000       0.42666833 </v>
    <v>       1.00000000       0.50000000       0.45916277 </v>
   </varray>
  </structure>
  <varray name="forces" >
   <v>       0.00000000       0.00000000       0.21734923 </v>
   <v>       0.00000000       0.00000000      -0.14466215 </v>
   <v>       0.00000000       0.00000000       0.03539606 </v>
   <v>       0.00000000       0.00000000      -0.06446039 </v>
   <v>       0.00000000       0.00000000      -0.05686931 </v>
   <v>       0.00000000       0.00000000      -0.06805813 </v>
   <v>       0.00000000       0.00000000      -0.05299122 </v>
   <v>       0.00000000       0.00000000      -0.09144738 </v>
   <v>       0.00000000       0.00000000       0.38098041 </v>
   <v>       0.00000000       0.00000000      -0.15523712 </v>
  </varray>
  <varray name="stress" >
   <v>     -29.40325811       0.00000000       0.00000000 </v>
   <v>       0.00000000     -25.81998204       0.00000000 </v>
   <v>       0.00000000       0.00000000       0.13705476 </v>
  </varray>
  <energy>
   <i name="e_fr_energy">    -38.48508919 </i>
   <i name="e_wo_entrp">    -38.48583718 </i>
   <i name="e_0_energy">    -38.48533852 </i>
  </energy>
  <time name="totalsc">    2.53    2.61</time>
 </calculation>
 <calculation>
  <scstep>
   <time name="dav">    0.32    0.33</time>
   <time name="total">    0.40    0.40</time>
   <energy>
    <i name="alphaZ">    216.17040255 </i>
    <i name="ewald">  42462.77442245 </i>
    <i name="hartreedc"> -53200.00908551 </i>
    <i name="XCdc">    362.20055957 </i>
    <i name="pawpsdc">  10511.82587944 </i>
    <i name="pawaedc"> -11373.56451873 </i>
    <i name="eentropy">      0.00243931 </i>
    <i name="bandstr">   -167.25427227 </i>
    <i name="atom">  11152.61838693 </i>
    <i name="e_fr_energy">    -35.23578627 </i>
    <i name="e_wo_entrp">    -35.23822558 </i>
    <i name="e_0_energy">    -35.23659937 </i>
   </energy>
  </scstep>
  <scstep>
   <time name="dav">    0.41    0.41</time>
   <time name="total">    0.49    0.49</time>
   <energy>
    <i name="e_fr_energy">    -35.25316426 </i>
    <i name="e_wo_entrp">    -35.25524924 </i>
    <i name="e_0_energy">    -35.25385925 </i>
   </energy>
  </scstep>
  <scstep>
   <time name="dav">    0.32    0.32</time>
   <time name="total">    0.40    0.40</time>
   <energy>
    <i name="e_fr_energy">    -35.25178996 </i>
    <i name="e_wo_entrp">    -35.25404720 </i>
    <i name="e_0_energy">    -35.25254238 </i>
   </energy>
  </scstep>
  <scstep>
   <time name="dav">    0.33    0.33</time>
   <time name="total">    0.40    0.40</time>
   <energy>
    <i name="e_fr_energy">    -35.25170657 </i>
    <i name="e_wo_entrp">    -35.25406869 </i>
    <i name="e_0_energy">    -35.25249394 </i>
   </energy>
  </scstep>
  <scstep>
   <time name="dav">    0.32    0.32</time>
   <time name="total">    0.34    0.35</time>
   <energy>
    <i name="alphaZ">    216.17040255 </i>
    <i name="ewald">  42462.77442245 </i>
    <i name="hartreedc"> -53199.64238064 </i>
    <i name="XCdc">    362.18738355 </i>
    <i name="pawpsdc">  10519.56571029 </i>
    <i name="pawaedc"> -11381.42359997 </i>
    <i name="eentropy">      0.00220872 </i>
    <i name="bandstr">   -167.50409276 </i>
    <i name="atom">  11152.61838693 </i>
    <i name="e_fr_energy">    -35.25155889 </i>
    <i name="e_wo_entrp">    -35.25376761 </i>
    <i name="e_0_energy">    -35.25229513 </i>
   </energy>
  </scstep>
  <structure>
   <crystal>
    <varray name="basis" >
     <v>       3.63000011       0.00000000       0.00000000 </v>
     <v>       0.00000000       2.56679773       0.00000000 </v>
     <v>       0.00000000       0.00000000      23.98379135 </v>
    </varray>
    <i name="volume">    223.46840188 </i>
    <varray name="rec_basis" >
     <v>       0.27548208       0.00000000       0.00000000 </v>
     <v>       0.00000000       0.38959050       0.00000000 </v>
     <v>       0.00000000       0.00000000       0.04169483 </v>
    </varray>
   </crystal>
   <varray name="positions" >
    <v>       0.00000000       0.00000000       0.00310597 </v>
    <v>       0.50000000       0.50000000       0.05070748 </v>
    <v>       0.00000000       0.00000000       0.10472138 </v>
    <v>       0.50000000       0.50000000       0.15822038 </v>
    <v>       0.00000000       0.00000000       0.21013328 </v>
    <v>       0.50000000       0.50000000       0.26295937 </v>
    <v>       0.00000000       0.00000000       0.31680212 </v>
    <v>       0.50000000       0.50000000       0.36337993 </v>
    <v>       1.00000000       0.50000000       0.42705356 </v>
    <v>       1.00000000       0.50000000       0.45935052 </v>
   </varray>
  </structure>
  <varray name="forces" >
   <v>       0.00000000       0.00000000       0.02922651 </v>
   <v>       0.00000000       0.00000000       0.05209667 </v>
   <v>       0.00000000       0.00000000       0.07130090 </v>
   <v>       0.00000000       0.00000000      -0.12511476 </v>
   <v>       0.00000000       0.00000000      -0.03233303 </v>
   <v>       0.00000000       0.00000000      -0.12620637 </v>
   <v>       0.00000000       0.00000000      -0.06228560 </v>
   <v>       0.00000000       0.00000000      -0.02710074 </v>
   <v>       0.00000000       0.00000000       0.28408064 </v>
   <v>       0.00000000       0.00000000      -0.06366422 </v>
  </varray>
  <varray name="stress" >
   <v>     -31.58668942       0.00000000       0.00000000 </v>
   <v>       0.00000000     -29.24261799       0.00000000 </v>
   <v>       0.00000000       0.00000000      -1.46948344 </v>
  </varray>
  <energy>
   <i name="e_fr_energy">    -38.49363756 </i>
   <i name="e_wo_entrp">    -38.49584628 </i>
   <i name="e_0_energy">    -38.49437380 </i>
  </energy>
  <time name="totalsc">    2.52    2.58</time>
 </calculation>
 <calculation>
  <scstep>
   <time name="dav">    0.32    0.32</time>
   <time name="total">    0.39    0.40</time>
   <energy>
    <i name="alphaZ">    216.17040255 </i>
    <i name="ewald">  42481.45813142 </i>
    <i name="hartreedc"> -53217.90091907 </i>
    <i name="XCdc">    362.19663554 </i>
    <i name="pawpsdc">  10521.64641043 </i>
    <i name="pawaedc"> -11383.59017760 </i>
    <i name="eentropy">      0.00274495 </i>
    <i name="bandstr">   -167.85236937 </i>
    <i name="atom">  11152.61838693 </i>
    <i name="e_fr_energy">    -35.25075422 </i>
    <i name="e_wo_entrp">    -35.25349918 </i>
    <i name="e_0_energy">    -35.25166921 </i>
   </energy>
  </scstep>
  <scstep>
   <time name="dav">    0.42    0.42</time>
   <time name="total">    0.49    0.49</time>
   <energy>
    <i name="e_fr_energy">    -35.25136203 </i>
    <i name="e_wo_entrp">    -35.25398185 </i>
    <i name="e_0_energy">    -35.25223531 </i>
   </energy>
  </scstep>
  <scstep>
   <time name="dav">    0.30    0.30</time>
   <time name="total">    0.33    0.33</time>
   <energy>
    <i name="alphaZ">    216.17040255 </i>
    <i name="ewald">  42481.45813142 </i>
    <i name="hartreedc"> -53217.97899252 </i>
    <i name="XCdc">    362.19462078 </i>
    <i name="pawpsdc">  10522.84672288 </i>
    <i name="pawaedc"> -11384.80816266 </i>
    <i name="eentropy">      0.00262111 </i>
    <i name="bandstr">   -167.75511165 </i>
    <i name="atom">  11152.61838693 </i>
    <i name="e_fr_energy">    -35.25138117 </i>
    <i name="e_wo_entrp">    -35.25400228 </i>
    <i name="e_0_energy">    -35.25225487 </i>
   </energy>
  </scstep>
  <structure>
   <crystal>
    <varray name="basis" >
     <v>       3.63000011       0.00000000       0.00000000 </v>
     <v>       0.00000000       2.56679773       0.00000000 </v>
     <v>       0.00000000       0.00000000      23.98379135 </v>
    </varray>
    <i name="volume">    223.46840188 </i>
    <varray name="rec_basis" >
     <v>       0.27548208       0.00000000       0.00000000 </v>
     <v>       0.00000000       0.38959050       0.00000000 </v>
     <v>       0.00000000       0.00000000       0.04169483 </v>
    </varray>
   </crystal>
   <varray name="positions" >
    <v>       0.00000000       0.00000000       0.00332239 </v>
    <v>       0.50000000       0.50000000       0.05051337 </v>
    <v>       0.00000000       0.00000000       0.10472540 </v>
    <v>       0.50000000       0.50000000       0.15823949 </v>
    <v>       0.00000000       0.00000000       0.21009331 </v>
    <v>       0.50000000       0.50000000       0.26296360 </v>
    <v>       0.00000000       0.00000000       0.31677945 </v>
    <v>       0.50000000       0.50000000       0.36328990 </v>
    <v>       1.00000000       0.50000000       0.42712281 </v>
    <v>       1.00000000       0.50000000       0.45938427 </v>
   </varray>
  </structure>
  <varray name="forces" >
   <v>       0.00000000       0.00000000      -0.01393442 </v>
   <v>       0.00000000       0.00000000       0.09354770 </v>
   <v>       0.00000000       0.00000000       0.07323012 </v>
   <v>       0.00000000       0.00000000      -0.13271657 </v>
   <v>       0.00000000       0.00000000      -0.02293984 </v>
   <v>       0.00000000       0.00000000      -0.12725068 </v>
   <v>       0.00000000       0.00000000      -0.06348622 </v>
   <v>       0.00000000       0.00000000      -0.01577202 </v>
   <v>       0.00000000       0.00000000       0.25756280 </v>
   <v>       0.00000000       0.00000000      -0.04824086 </v>
  </varray>
  <varray name="stress" >
   <v>     -33.51258898       0.00000000       0.00000000 </v>
   <v>       0.00000000     -31.35157895       0.00000000 </v>
   <v>       0.00000000       0.00000000      -2.83600135 </v>
  </varray>
  <energy>
   <i name="e_fr_energy">    -38.49373220 </i>
   <i name="e_wo_entrp">    -38.49635332 </i>
   <i name="e_0_energy">    -38.49460591 </i>
  </energy>
  <time name="totalsc">    1.69    1.77</time>
 </calculation>
 <calculation>
  <scstep>
   <time name="dav">    0.31    0.31</time>
   <time name="total">    0.38    0.39</time>
   <energy>
    <i name="alphaZ">    216.17040255 </i>
    <i name="ewald">  42528.14337159 </i>
    <i name="hartreedc"> -53264.37469901 </i>
    <i name="XCdc">    362.21000146 </i>
    <i name="pawpsdc">  10523.04625382 </i>
    <i name="pawaedc"> -11385.00703636 </i>
    <i name="eentropy">      0.00210346 </i>
    <i name="bandstr">   -168.06111776 </i>
    <i name="atom">  11152.61838693 </i>
    <i name="e_fr_energy">    -35.25233333 </i>
    <i name="e_wo_entrp">    -35.25443679 </i>
    <i name="e_0_energy">    -35.25303448 </i>
   </energy>
  </scstep>
  <scstep>
   <time name="dav">    0.37    0.38</time>
   <time name="total">    0.45    0.45</time>
   <energy>
    <i name="e_fr_energy">    -35.25398528 </i>
    <i name="e_wo_entrp">    -35.25632569 </i>
    <i name="e_0_energy">    -35.25476542 </i>
   </energy>
  </scstep>
  <scstep>
   <time name="dav">    0.33    0.33</time>
   <time name="total">    0.35    0.35</time>
   <energy>
    <i name="alphaZ">    216.17040255 </i>
    <i name="ewald">  42528.14337159 </i>
    <i name="hartreedc"> -53264.30710317 </i>
    <i name="XCdc">    362.22192368 </i>
    <i name="pawpsdc">  10524.07474166 </i>
    <i name="pawaedc"> -11386.03989779 </i>
    <i name="eentropy">      0.00218866 </i>
    <i name="bandstr">   -168.13792989 </i>
    <i name="atom">  11152.61838693 </i>
    <i name="e_fr_energy">    -35.25391579 </i>
    <i name="e_wo_entrp">    -35.25610444 </i>
    <i name="e_0_energy">    -35.25464534 </i>
   </energy>
  </scstep>
  <structure>
   <crystal>
    <varray name="basis" >
     <v>       3.63000011       0.00000000       0.00000000 </v>
     <v>       0.00000000       2.56679773       0.00000000 </v>
     <v>       0.00000000       0.00000000      23.98379135 </v>
    </varray>
    <i name="volume">    223.46840188 </i>
    <varray name="rec_basis" >
     <v>       0.27548208       0.00000000       0.00000000 </v>
     <v>       0.00000000       0.38959050       0.00000000 </v>
     <v>       0.00000000       0.00000000       0.04169483 </v>
    </varray>
   </crystal>
   <varray name="positions" >
    <v>       0.00000000       0.00000000       0.00335099 </v>
    <v>       0.50000000       0.50000000       0.05067123 </v>
    <v>       0.00000000       0.00000000       0.10489232 </v>
    <v>       0.50000000       0.50000000       0.15794431 </v>
    <v>       0.00000000       0.00000000       0.21003027 </v>
    <v>       0.50000000       0.50000000       0.26267666 </v>
    <v>       0.00000000       0.00000000       0.31662940 </v>
    <v>       0.50000000       0.50000000       0.36322917 </v>
    <v>       1.00000000       0.50000000       0.42772522 </v>
    <v>       1.00000000       0.50000000       0.45928442 </v>
   </varray>
  </structure>
  <varray name="forces" >
   <v>       0.00000000       0.00000000       0.01371761 </v>
   <v>       0.00000000       0.00000000       0.03775837 </v>
   <v>       0.00000000       0.00000000       0.01145615 </v>
   <v>       0.00000000       0.00000000      -0.06129362 </v>
   <v>       0.00000000       0.00000000      -0.03262017 </v>
   <v>       0.00000000       0.00000000      -0.07693133 </v>
   <v>       0.00000000       0.00000000      -0.05374943 </v>
   <v>       0.00000000       0.00000000      -0.05823616 </v>
   <v>       0.00000000       0.00000000      -0.15476709 </v>
   <v>       0.00000000       0.00000000       0.37466568 </v>
  </varray>
  <varray name="stress" >
   <v>     -31.86802116       0.00000000       0.00000000 </v>
   <v>       0.00000000     -29.82488608       0.00000000 </v>
   <v>       0.00000000       0.00000000       1.33042613 </v>
  </varray>
  <energy>
   <i name="e_fr_energy">    -38.49644722 </i>
   <i name="e_wo_entrp">    -38.49863588 </i>
   <i name="e_0_energy">    -38.49717677 </i>
  </energy>
  <time name="totalsc">    1.67    1.72</time>
 </calculation>
 <calculation>
  <scstep>
   <time name="dav">    0.39    0.39</time>
   <time name="total">    0.46    0.46</time>
   <energy>
    <i name="alphaZ">    216.17040255 </i>
    <i name="ewald">  42518.80062024 </i>
    <i name="hartreedc"> -53255.11563717 </i>
    <i name="XCdc">    362.22707464 </i>
    <i name="pawpsdc">  10524.81835289 </i>
    <i name="pawaedc"> -11386.81341678 </i>
    <i name="eentropy">      0.00250883 </i>
    <i name="bandstr">   -167.96228466 </i>
    <i name="atom">  11152.61838693 </i>
    <i name="e_fr_energy">    -35.25399253 </i>
    <i name="e_wo_entrp">    -35.25650136 </i>
    <i name="e_0_energy">    -35.25482880 </i>
   </energy>
  </scstep>
  <scstep>
   <time name="dav">    0.27    0.27</time>
   <time name="total">    0.34    0.35</time>
   <energy>
    <i name="e_fr_energy">    -35.25421392 </i>
    <i name="e_wo_entrp">    -35.25643153 </i>
    <i name="e_0_energy">    -35.25495313 </i>
   </energy>
  </scstep>
  <scstep>
   <time name="dav">    0.24    0.24</time>
   <time name="total">    0.31    0.32</time>
   <energy>
    <i name="e_fr_energy">    -35.25400486 </i>
    <i name="e_wo_entrp">    -35.25638803 </i>
    <i name="e_0_energy">    -35.25479925 </i>
   </energy>
  </scstep>
  <scstep>
   <time name="dav">    0.25    0.25</time>
   <time name="total">    0.27    0.28</time>
   <energy>
    <i name="alphaZ">    216.17040255 </i>
    <i name="ewald">  42518.80062024 </i>
    <i name="hartreedc"> -53255.28386893 </i>
    <i name="XCdc">    362.22339459 </i>
    <i name="pawpsdc">  10525.15270724 </i>
    <i name="pawaedc"> -11387.13276065 </i>
    <i name="eentropy">      0.00237509 </i>
    <i name="bandstr">   -167.80530031 </i>
    <i name="atom">  11152.61838693 </i>
    <i name="e_fr_energy">    -35.25404325 </i>
    <i name="e_wo_entrp">    -35.25641834 </i>
    <i name="e_0_energy">    -35.25483494 </i>
   </energy>
  </scstep>
  <structure>
   <crystal>
    <varray name="basis" >
     <v>       3.63000011       0.00000000       0.00000000 </v>
     <v>       0.00000000       2.56679773       0.00000000 </v>
     <v>       0.00000000       0.00000000      23.98379135 </v>
    </varray>
    <i name="volume">    223.46840188 </i>
    <varray name="rec_basis" >
     <v>       0.27548208       0.00000000       0.00000000 </v>
     <v>       0.00000000       0.38959050       0.00000000 </v>
     <v>       0.00000000       0.00000000       0.04169483 </v>
    </varray>
   </crystal>
   <varray name="positions" >
    <v>       0.00000000       0.00000000       0.00334527 </v>
    <v>       0.50000000       0.50000000       0.05063966 </v>
    <v>       0.00000000       0.00000000       0.10485894 </v>
    <v>       0.50000000       0.50000000       0.15800335 </v>
    <v>       0.00000000       0.00000000       0.21004288 </v>
    <v>       0.50000000       0.50000000       0.26273405 </v>
    <v>       0.00000000       0.00000000       0.31665941 </v>
    <v>       0.50000000       0.50000000       0.36324132 </v>
    <v>       1.00000000       0.50000000       0.42760473 </v>
    <v>       1.00000000       0.50000000       0.45930439 </v>
   </varray>
  </structure>
  <varray name="forces" >
   <v>       0.00000000       0.00000000       0.01700230 </v>
   <v>       0.00000000       0.00000000       0.07545336 </v>
   <v>       0.00000000       0.00000000       0.05621456 </v>
   <v>       0.00000000       0.00000000      -0.10101879 </v>
   <v>       0.00000000       0.00000000      -0.03190011 </v>
   <v>       0.00000000       0.00000000      -0.11030110 </v>
   <v>       0.00000000       0.00000000      -0.06959307 </v>
   <v>       0.00000000       0.00000000      -0.05089832 </v>
   <v>       0.00000000       0.00000000      -0.08438736 </v>
   <v>       0.00000000       0.00000000       0.29942853 </v>
  </varray>
  <varray name="stress" >
   <v>     -33.17365026       0.00000000       0.00000000 </v>
   <v>       0.00000000     -31.09012918       0.00000000 </v>
   <v>       0.00000000       0.00000000      -0.29267270 </v>
  </varray>
  <energy>
   <i name="e_fr_energy">    -38.49647010 </i>
   <i name="e_wo_entrp">    -38.49884520 </i>
   <i name="e_0_energy">    -38.49726180 </i>
  </energy>
  <time name="totalsc">    1.87    1.94</time>
 </calculation>
 <calculation>
  <scstep>
   <time name="dav">    0.31    0.31</time>
   <time name="total">    0.39    0.39</time>
   <energy>
    <i name="alphaZ">    216.17040255 </i>
    <i name="ewald">  42560.15396736 </i>
    <i name="hartreedc"> -53296.66120193 </i>
    <i name="XCdc">    362.22570038 </i>
    <i name="pawpsdc">  10525.17579243 </i>
    <i name="pawaedc"> -11387.15767362 </i>
    <i name="eentropy">      0.00192469 </i>
    <i name="bandstr">   -167.78173147 </i>
    <i name="atom">  11152.61838693 </i>
    <i name="e_fr_energy">    -35.25443270 </i>
    <i name="e_wo_entrp">    -35.25635738 </i>
    <i name="e_0_energy">    -35.25507426 </i>
   </energy>
  </scstep>
  <scstep>
   <time name="dav">    0.38    0.39</time>
   <time name="total">    0.46    0.46</time>
   <energy>
    <i name="e_fr_energy">    -35.25536552 </i>
    <i name="e_wo_entrp">    -35.25739635 </i>
    <i name="e_0_energy">    -35.25604246 </i>
   </energy>
  </scstep>
  <scstep>
   <time name="dav">    0.24    0.24</time>
   <time name="total">    0.26    0.26</time>
   <energy>
    <i name="alphaZ">    216.17040255 </i>
    <i name="ewald">  42560.15396736 </i>
    <i name="hartreedc"> -53296.45422750 </i>
    <i name="XCdc">    362.22227255 </i>
    <i name="pawpsdc">  10525.33930610 </i>
    <i name="pawaedc"> -11387.30812654 </i>
    <i name="eentropy">      0.00200565 </i>
    <i name="bandstr">   -167.99932577 </i>
    <i name="atom">  11152.61838693 </i>
    <i name="e_fr_energy">    -35.25533868 </i>
    <i name="e_wo_entrp">    -35.25734433 </i>
    <i name="e_0_energy">    -35.25600723 </i>
   </energy>
  </scstep>
  <structure>
   <crystal>
    <varray name="basis" >
     <v>       3.63000011       0.00000000       0.00000000 </v>
     <v>       0.00000000       2.56679773       0.00000000 </v>
     <v>       0.00000000       0.00000000      23.98379135 </v>
    </varray>
    <i name="volume">    223.46840188 </i>
    <varray name="rec_basis" >
     <v>       0.27548208       0.00000000       0.00000000 </v>
     <v>       0.00000000       0.38959050       0.00000000 </v>
     <v>       0.00000000       0.00000000       0.04169483 </v>
    </varray>
   </crystal>
   <varray name="positions" >
    <v>       0.00000000       0.00000000       0.00337304 </v>
    <v>       0.50000000       0.50000000       0.05077612 </v>
    <v>       0.00000000       0.00000000       0.10498167 </v>
    <v>       0.50000000       0.50000000       0.15778483 </v>
    <v>       0.00000000       0.00000000       0.20998676 </v>
    <v>       0.50000000       0.50000000       0.26251056 </v>
    <v>       0.00000000       0.00000000       0.31653165 </v>
    <v>       0.50000000       0.50000000       0.36316881 </v>
    <v>       1.00000000       0.50000000       0.42778493 </v>
    <v>       1.00000000       0.50000000       0.45953562 </v>
   </varray>
  </structure>
  <varray name="forces" >
   <v>       0.00000000       0.00000000       0.01321297 </v>
   <v>       0.00000000       0.00000000       0.01831144 </v>
   <v>       0.00000000       0.00000000      -0.00845804 </v>
   <v>       0.00000000       0.00000000      -0.03454255 </v>
   <v>       0.00000000       0.00000000      -0.03091831 </v>
   <v>       0.00000000       0.00000000      -0.05456884 </v>
   <v>       0.00000000       0.00000000      -0.04840832 </v>
   <v>       0.00000000       0.00000000      -0.06187538 </v>
   <v>       0.00000000       0.00000000      -0.04972198 </v>
   <v>       0.00000000       0.00000000       0.25696901 </v>
  </varray>
  <varray name="stress" >
   <v>     -31.82321352       0.00000000       0.00000000 </v>
   <v>       0.00000000     -29.70995237       0.00000000 </v>
   <v>       0.00000000       0.00000000       0.96150793 </v>
  </varray>
  <energy>
   <i name="e_fr_energy">    -38.49916754 </i>
   <i name="e_wo_entrp">    -38.50117319 </i>
   <i name="e_0_energy">    -38.49983609 </i>
  </energy>
  <time name="totalsc">    1.59    1.62</time>
 </calculation>
 <calculation>
  <scstep>
   <time name="dav">    0.32    0.32</time>
   <time name="total">    0.39    0.39</time>
   <energy>
    <i name="alphaZ">    216.17040255 </i>
    <i name="ewald">  42632.42915942 </i>
    <i name="hartreedc"> -53368.68922982 </i>
    <i name="XCdc">    362.22765378 </i>
    <i name="pawpsdc">  10525.37723957 </i>
    <i name="pawaedc"> -11387.35234831 </i>
    <i name="eentropy">      0.00131050 </i>
    <i name="bandstr">   -168.03629782 </i>
    <i name="atom">  11152.61838693 </i>
    <i name="e_fr_energy">    -35.25372321 </i>
    <i name="e_wo_entrp">    -35.25503371 </i>
    <i name="e_0_energy">    -35.25416004 </i>
   </energy>
  </scstep>
  <scstep>
   <time name="dav">    0.38    0.38</time>
   <time name="total">    0.45    0.45</time>
   <energy>
    <i name="e_fr_energy">    -35.25644311 </i>
    <i name="e_wo_entrp">    -35.25785890 </i>
    <i name="e_0_energy">    -35.25691504 </i>
   </energy>
  </scstep>
  <scstep>
   <time name="dav">    0.25    0.26</time>
   <time name="total">    0.28    0.34</time>
   <energy>
    <i name="alphaZ">    216.17040255 </i>
    <i name="ewald">  42632.42915942 </i>
    <i name="hartreedc"> -53368.22921002 </i>
    <i name="XCdc">    362.22149566 </i>
    <i name="pawpsdc">  10525.83886574 </i>
    <i name="pawaedc"> -11387.79743190 </i>
    <i name="eentropy">      0.00145792 </i>
    <i name="bandstr">   -168.50942844 </i>
    <i name="atom">  11152.61838693 </i>
    <i name="e_fr_energy">    -35.25630214 </i>
    <i name="e_wo_entrp">    -35.25776006 </i>
    <i name="e_0_energy">    -35.25678811 </i>
   </energy>
  </scstep>
  <structure>
   <crystal>
    <varray name="basis" >
     <v>       3.63000011       0.00000000       0.00000000 </v>
     <v>       0.00000000       2.56679773       0.00000000 </v>
     <v>       0.00000000       0.00000000      23.98379135 </v>
    </varray>
    <i name="volume">    223.46840188 </i>
    <varray name="rec_basis" >
     <v>       0.27548208       0.00000000       0.00000000 </v>
     <v>       0.00000000       0.38959050       0.00000000 </v>
     <v>       0.00000000       0.00000000       0.04169483 </v>
    </varray>
   </crystal>
   <varray name="positions" >
    <v>       0.00000000       0.00000000       0.00342153 </v>
    <v>       0.50000000       0.50000000       0.05101439 </v>
    <v>       0.00000000       0.00000000       0.10519597 </v>
    <v>       0.50000000       0.50000000       0.15740329 </v>
    <v>       0.00000000       0.00000000       0.20988878 </v>
    <v>       0.50000000       0.50000000       0.26212035 </v>
    <v>       0.00000000       0.00000000       0.31630857 </v>
    <v>       0.50000000       0.50000000       0.36304222 </v>
    <v>       1.00000000       0.50000000       0.42809955 </v>
    <v>       1.00000000       0.50000000       0.45993934 </v>
   </varray>
  </structure>
  <varray name="forces" >
   <v>       0.00000000       0.00000000       0.02416630 </v>
   <v>       0.00000000       0.00000000      -0.02981221 </v>
   <v>       0.00000000       0.00000000      -0.06516652 </v>
   <v>       0.00000000       0.00000000       0.03111203 </v>
   <v>       0.00000000       0.00000000      -0.03465580 </v>
   <v>       0.00000000       0.00000000      -0.00448667 </v>
   <v>       0.00000000       0.00000000      -0.03933987 </v>
   <v>       0.00000000       0.00000000      -0.08427421 </v>
   <v>       0.00000000       0.00000000       0.01415496 </v>
   <v>       0.00000000       0.00000000       0.18830199 </v>
  </varray>
  <varray name="stress" >
   <v>     -29.79316017       0.00000000       0.00000000 </v>
   <v>       0.00000000     -27.64515552       0.00000000 </v>
   <v>       0.00000000       0.00000000       2.95776688 </v>
  </varray>
  <energy>
   <i name="e_fr_energy">    -38.50260135 </i>
   <i name="e_wo_entrp">    -38.50405927 </i>
   <i name="e_0_energy">    -38.50308732 </i>
  </energy>
  <time name="totalsc">    1.61    1.72</time>
 </calculation>
 <calculation>
  <scstep>
   <time name="dav">    0.32    0.32</time>
   <time name="total">    0.39    0.40</time>
   <energy>
    <i name="alphaZ">    216.17040255 </i>
    <i name="ewald">  42777.25397655 </i>
    <i name="hartreedc"> -53512.80715273 </i>
    <i name="XCdc">    362.23544171 </i>
    <i name="pawpsdc">  10526.07813827 </i>
    <i name="pawaedc"> -11388.05952737 </i>
    <i name="eentropy">     -0.00001984 </i>
    <i name="bandstr">   -168.73218791 </i>
    <i name="atom">  11152.61838693 </i>
    <i name="e_fr_energy">    -35.24254184 </i>
    <i name="e_wo_entrp">    -35.24252200 </i>
    <i name="e_0_energy">    -35.24253523 </i>
   </energy>
  </scstep>
  <scstep>
   <time name="dav">    0.39    0.40</time>
   <time name="total">    0.47    0.47</time>
   <energy>
    <i name="e_fr_energy">    -35.25354352 </i>
    <i name="e_wo_entrp">    -35.25401920 </i>
    <i name="e_0_energy">    -35.25370208 </i>
   </energy>
  </scstep>
  <scstep>
   <time name="dav">    0.33    0.34</time>
   <time name="total">    0.41    0.41</time>
   <energy>
    <i name="e_fr_energy">    -35.25332524 </i>
    <i name="e_wo_entrp">    -35.25358852 </i>
    <i name="e_0_energy">    -35.25341300 </i>
   </energy>
  </scstep>
  <scstep>
   <time name="dav">    0.32    0.32</time>
   <time name="total">    0.39    0.39</time>
   <energy>
    <i name="e_fr_energy">    -35.25307682 </i>
    <i name="e_wo_entrp">    -35.25351436 </i>
    <i name="e_0_energy">    -35.25322266 </i>
   </energy>
  </scstep>
  <scstep>
   <time name="dav">    0.34    0.34</time>
   <time name="total">    0.41    0.41</time>
   <energy>
    <i name="e_fr_energy">    -35.25262854 </i>
    <i name="e_wo_entrp">    -35.25318733 </i>
    <i name="e_0_energy">    -35.25281480 </i>
   </energy>
  </scstep>
  <scstep>
   <time name="dav">    0.28    0.28</time>
   <time name="total">    0.30    0.31</time>
   <energy>
    <i name="alphaZ">    216.17040255 </i>
    <i name="ewald">  42777.25397655 </i>
    <i name="hartreedc"> -53511.40177101 </i>
    <i name="XCdc">    362.22358850 </i>
    <i name="pawpsdc">  10528.58508410 </i>
    <i name="pawaedc"> -11390.66192883 </i>
    <i name="eentropy">      0.00046339 </i>
    <i name="bandstr">   -170.04087670 </i>
    <i name="atom">  11152.61838693 </i>
    <i name="e_fr_energy">    -35.25267454 </i>
    <i name="e_wo_entrp">    -35.25313793 </i>
    <i name="e_0_energy">    -35.25282900 </i>
   </energy>
  </scstep>
  <structure>
   <crystal>
    <varray name="basis" >
     <v>       3.63000011       0.00000000       0.00000000 </v>
     <v>       0.00000000       2.56679773       0.00000000 </v>
     <v>       0.00000000       0.00000000      23.98379135 </v>
    </varray>
    <i name="volume">    223.46840188 </i>
    <varray name="rec_basis" >
     <v>       0.27548208       0.00000000       0.00000000 </v>
     <v>       0.00000000       0.38959050       0.00000000 </v>
     <v>       0.00000000       0.00000000       0.04169483 </v>
    </varray>
   </crystal>
   <varray name="positions" >
    <v>       0.00000000       0.00000000       0.00351850 </v>
    <v>       0.50000000       0.50000000       0.05149092 </v>
    <v>       0.00000000       0.00000000       0.10562457 </v>
    <v>       0.50000000       0.50000000       0.15664022 </v>
    <v>       0.00000000       0.00000000       0.20969283 </v>
    <v>       0.50000000       0.50000000       0.26133992 </v>
    <v>       0.00000000       0.00000000       0.31586242 </v>
    <v>       0.50000000       0.50000000       0.36278904 </v>
    <v>       1.00000000       0.50000000       0.42872880 </v>
    <v>       1.00000000       0.50000000       0.46074677 </v>
   </varray>
  </structure>
  <varray name="forces" >
   <v>       0.00000000       0.00000000       0.06535481 </v>
   <v>       0.00000000       0.00000000      -0.09032148 </v>
   <v>       0.00000000       0.00000000      -0.14939978 </v>
   <v>       0.00000000       0.00000000       0.13218413 </v>
   <v>       0.00000000       0.00000000      -0.04050148 </v>
   <v>       0.00000000       0.00000000       0.06088304 </v>
   <v>       0.00000000       0.00000000      -0.03146855 </v>
   <v>       0.00000000       0.00000000      -0.12149789 </v>
   <v>       0.00000000       0.00000000       0.13080627 </v>
   <v>       0.00000000       0.00000000       0.04396093 </v>
  </varray>
  <varray name="stress" >
   <v>     -33.90017430       0.00000000       0.00000000 </v>
   <v>       0.00000000     -31.62779248       0.00000000 </v>
   <v>       0.00000000       0.00000000      -0.39416728 </v>
  </varray>
  <energy>
   <i name="e_fr_energy">    -38.50401061 </i>
   <i name="e_wo_entrp">    -38.50447400 </i>
   <i name="e_0_energy">    -38.50416507 </i>
  </energy>
  <time name="totalsc">    2.86    2.93</time>
 </calculation>
 <calculation>
  <scstep>
   <time name="dav">    0.31    0.32</time>
   <time name="total">    0.39    0.39</time>
   <energy>
    <i name="alphaZ">    216.17040255 </i>
    <i name="ewald">  42726.67542530 </i>
    <i name="hartreedc"> -53460.88728143 </i>
    <i name="XCdc">    362.21991111 </i>
    <i name="pawpsdc">  10528.62894041 </i>
    <i name="pawaedc"> -11390.70278582 </i>
    <i name="eentropy">      0.00102825 </i>
    <i name="bandstr">   -169.97747181 </i>
    <i name="atom">  11152.61838693 </i>
    <i name="e_fr_energy">    -35.25344452 </i>
    <i name="e_wo_entrp">    -35.25447277 </i>
    <i name="e_0_energy">    -35.25378727 </i>
   </energy>
  </scstep>
  <scstep>
   <time name="dav">    0.40    0.40</time>
   <time name="total">    0.47    0.48</time>
   <energy>
    <i name="e_fr_energy">    -35.25478562 </i>
    <i name="e_wo_entrp">    -35.25563870 </i>
    <i name="e_0_energy">    -35.25506998 </i>
   </energy>
  </scstep>
  <scstep>
   <time name="dav">    0.30    0.30</time>
   <time name="total">    0.32    0.33</time>
   <energy>
    <i name="alphaZ">    216.17040255 </i>
    <i name="ewald">  42726.67542530 </i>
    <i name="hartreedc"> -53461.15522128 </i>
    <i name="XCdc">    362.21843900 </i>
    <i name="pawpsdc">  10528.33599064 </i>
    <i name="pawaedc"> -11390.37583941 </i>
    <i name="eentropy">      0.00090029 </i>
    <i name="bandstr">   -169.74322141 </i>
    <i name="atom">  11152.61838693 </i>
    <i name="e_fr_energy">    -35.25473740 </i>
    <i name="e_wo_entrp">    -35.25563769 </i>
    <i name="e_0_energy">    -35.25503750 </i>
   </energy>
  </scstep>
  <structure>
   <crystal>
    <varray name="basis" >
     <v>       3.63000011       0.00000000       0.00000000 </v>
     <v>       0.00000000       2.56679773       0.00000000 </v>
     <v>       0.00000000       0.00000000      23.98379135 </v>
    </varray>
    <i name="volume">    223.46840188 </i>
    <varray name="rec_basis" >
     <v>       0.27548208       0.00000000       0.00000000 </v>
     <v>       0.00000000       0.38959050       0.00000000 </v>
     <v>       0.00000000       0.00000000       0.04169483 </v>
    </varray>
   </crystal>
   <varray name="positions" >
    <v>       0.00000000       0.00000000       0.00348466 </v>
    <v>       0.50000000       0.50000000       0.05132463 </v>
    <v>       0.00000000       0.00000000       0.10547501 </v>
    <v>       0.50000000       0.50000000       0.15690650 </v>
    <v>       0.00000000       0.00000000       0.20976121 </v>
    <v>       0.50000000       0.50000000       0.26161226 </v>
    <v>       0.00000000       0.00000000       0.31601810 </v>
    <v>       0.50000000       0.50000000       0.36287739 </v>
    <v>       1.00000000       0.50000000       0.42850922 </v>
    <v>       1.00000000       0.50000000       0.46046502 </v>
   </varray>
  </structure>
  <varray name="forces" >
   <v>       0.00000000       0.00000000       0.05683033 </v>
   <v>       0.00000000       0.00000000      -0.05133127 </v>
   <v>       0.00000000       0.00000000      -0.10003523 </v>
   <v>       0.00000000       0.00000000       0.08040518 </v>
   <v>       0.00000000       0.00000000      -0.03693648 </v>
   <v>       0.00000000       0.00000000       0.02657532 </v>
   <v>       0.00000000       0.00000000      -0.03856500 </v>
   <v>       0.00000000       0.00000000      -0.10854133 </v>
   <v>       0.00000000       0.00000000       0.08626338 </v>
   <v>       0.00000000       0.00000000       0.08533509 </v>
  </varray>
  <varray name="stress" >
   <v>     -32.08933689       0.00000000       0.00000000 </v>
   <v>       0.00000000     -29.73719416       0.00000000 </v>
   <v>       0.00000000       0.00000000       1.60488199 </v>
  </varray>
  <energy>
   <i name="e_fr_energy">    -38.50430029 </i>
   <i name="e_wo_entrp">    -38.50520058 </i>
   <i name="e_0_energy">    -38.50460039 </i>
  </energy>
  <time name="totalsc">    1.67    1.73</time>
 </calculation>
 <calculation>
  <scstep>
   <time name="dav">    0.31    0.31</time>
   <time name="total">    0.38    0.39</time>
   <energy>
    <i name="alphaZ">    216.17040255 </i>
    <i name="ewald">  42768.49780579 </i>
    <i name="hartreedc"> -53502.96427486 </i>
    <i name="XCdc">    362.23056781 </i>
    <i name="pawpsdc">  10528.27527635 </i>
    <i name="pawaedc"> -11390.31951835 </i>
    <i name="eentropy">      0.00092005 </i>
    <i name="bandstr">   -169.76495324 </i>
    <i name="atom">  11152.61838693 </i>
    <i name="e_fr_energy">    -35.25538697 </i>
    <i name="e_wo_entrp">    -35.25630703 </i>
    <i name="e_0_energy">    -35.25569366 </i>
   </energy>
  </scstep>
  <scstep>
   <time name="dav">    0.39    0.39</time>
   <time name="total">    0.46    0.46</time>
   <energy>
    <i name="e_fr_energy">    -35.25607118 </i>
    <i name="e_wo_entrp">    -35.25697131 </i>
    <i name="e_0_energy">    -35.25637122 </i>
   </energy>
  </scstep>
  <scstep>
   <time name="dav">    0.28    0.28</time>
   <time name="total">    0.30    0.30</time>
   <energy>
    <i name="alphaZ">    216.17040255 </i>
    <i name="ewald">  42768.49780579 </i>
    <i name="hartreedc"> -53502.83039340 </i>
    <i name="XCdc">    362.22739230 </i>
    <i name="pawpsdc">  10529.02540852 </i>
    <i name="pawaedc"> -11391.06436610 </i>
    <i name="eentropy">      0.00090750 </i>
    <i name="bandstr">   -169.90161918 </i>
    <i name="atom">  11152.61838693 </i>
[...]
       <r>     6.1581     3.0516    51.6349 </r>
       <r>     6.2313     2.2964    51.8031 </r>
       <r>     6.3046     1.4071    51.9063 </r>
       <r>     6.3779     1.2380    51.9970 </r>
       <r>     6.4512     1.7923    52.1283 </r>
       <r>     6.5245     2.3714    52.3021 </r>
       <r>     6.5978     2.4341    52.4805 </r>
       <r>     6.6710     2.1084    52.6350 </r>
       <r>     6.7443     1.8588    52.7712 </r>
       <r>     6.8176     1.7633    52.9004 </r>
       <r>     6.8909     1.5238    53.0121 </r>
       <r>     6.9642     1.2385    53.1029 </r>
       <r>     7.0374     1.4745    53.2109 </r>
       <r>     7.1107     2.3423    53.3826 </r>
       <r>     7.1840     3.1044    53.6101 </r>
       <r>     7.2573     3.0289    53.8320 </r>
       <r>     7.3306     2.2423    53.9963 </r>
       <r>     7.4039     1.3913    54.0983 </r>
       <r>     7.4771     0.8146    54.1580 </r>
       <r>     7.5504     0.5158    54.1958 </r>
       <r>     7.6237     0.6421    54.2428 </r>
       <r>     7.6970     1.4342    54.3479 </r>
       <r>     7.7703     2.7791    54.5516 </r>
       <r>     7.8435     4.1602    54.8565 </r>
       <r>     7.9168     5.0374    55.2256 </r>
       <r>     7.9901     5.0872    55.5984 </r>
       <r>     8.0634     4.2304    55.9084 </r>
       <r>     8.1367     2.8021    56.1138 </r>
       <r>     8.2100     1.6200    56.2325 </r>
       <r>     8.2832     1.4045    56.3354 </r>
       <r>     8.3565     2.0046    56.4823 </r>
       <r>     8.4298     2.5401    56.6685 </r>
       <r>     8.5031     2.3827    56.8431 </r>
       <r>     8.5764     1.7068    56.9681 </r>
       <r>     8.6496     1.1254    57.0506 </r>
       <r>     8.7229     1.0953    57.1309 </r>
       <r>     8.7962     1.5907    57.2475 </r>
       <r>     8.8695     2.0812    57.4000 </r>
       <r>     8.9428     1.9672    57.5441 </r>
       <r>     9.0161     1.2516    57.6358 </r>
       <r>     9.0893     0.5749    57.6780 </r>
       <r>     9.1626     0.4736    57.7127 </r>
       <r>     9.2359     0.8915    57.7780 </r>
       <r>     9.3092     1.4924    57.8874 </r>
       <r>     9.3825     2.1367    58.0440 </r>
       <r>     9.4557     2.9000    58.2565 </r>
       <r>     9.5290     3.8200    58.5364 </r>
       <r>     9.6023     4.6964    58.8806 </r>
       <r>     9.6756     5.0471    59.2504 </r>
       <r>     9.7489     4.4668    59.5778 </r>
       <r>     9.8222     3.1591    59.8093 </r>
       <r>     9.8954     1.7858    59.9402 </r>
       <r>     9.9687     0.7960    59.9985 </r>
       <r>    10.0420     0.2270    60.0151 </r>
       <r>    10.1153    -0.0293    60.0130 </r>
       <r>    10.1886    -0.0863    60.0066 </r>
       <r>    10.2618    -0.0583    60.0024 </r>
       <r>    10.3351    -0.0240    60.0006 </r>
       <r>    10.4084    -0.0068    60.0001 </r>
       <r>    10.4817    -0.0014    60.0000 </r>
       <r>    10.5550    -0.0002    60.0000 </r>
       <r>    10.6283    -0.0000    60.0000 </r>
       <r>    10.7015    -0.0000    60.0000 </r>
       <r>    10.7748    -0.0000    60.0000 </r>
       <r>    10.8481    -0.0000    60.0000 </r>
       <r>    10.9214    -0.0000    60.0000 </r>
       <r>    10.9947    -0.0000    60.0000 </r>
       <r>    11.0679    -0.0000    60.0000 </r>
       <r>    11.1412    -0.0000    60.0000 </r>
       <r>    11.2145     0.0000    60.0000 </r>
       <r>    11.2878     0.0000    60.0000 </r>
       <r>    11.3611     0.0000    60.0000 </r>
       <r>    11.4344     0.0000    60.0000 </r>
       <r>    11.5076     0.0000    60.0000 </r>
       <r>    11.5809     0.0000    60.0000 </r>
       <r>    11.6542     0.0000    60.0000 </r>
       <r>    11.7275     0.0000    60.0000 </r>
       <r>    11.8008     0.0000    60.0000 </r>
       <r>    11.8740     0.0000    60.0000 </r>
      </set>
      <set comment="spin 2">
       <r>   -10.1105     0.0000     0.0000 </r>
       <r>   -10.0372     0.0000     0.0000 </r>
       <r>    -9.9639     0.0000     0.0000 </r>
       <r>    -9.8906     0.0000     0.0000 </r>
       <r>    -9.8174     0.0000     0.0000 </r>
       <r>    -9.7441    -0.0000    -0.0000 </r>
       <r>    -9.6708    -0.0000    -0.0000 </r>
       <r>    -9.5975    -0.0000    -0.0000 </r>
       <r>    -9.5242    -0.0000    -0.0000 </r>
       <r>    -9.4510    -0.0000    -0.0000 </r>
       <r>    -9.3777    -0.0000    -0.0000 </r>
       <r>    -9.3044    -0.0000    -0.0000 </r>
       <r>    -9.2311    -0.0000    -0.0000 </r>
       <r>    -9.1578    -0.0000    -0.0000 </r>
       <r>    -9.0845    -0.0000    -0.0000 </r>
       <r>    -9.0113    -0.0000    -0.0000 </r>
       <r>    -8.9380    -0.0000    -0.0000 </r>
       <r>    -8.8647    -0.0000    -0.0000 </r>
       <r>    -8.7914    -0.0000    -0.0000 </r>
       <r>    -8.7181    -0.0001    -0.0000 </r>
       <r>    -8.6449    -0.0007    -0.0001 </r>
       <r>    -8.5716    -0.0032    -0.0003 </r>
       <r>    -8.4983    -0.0107    -0.0011 </r>
       <r>    -8.4250    -0.0222    -0.0027 </r>
       <r>    -8.3517    -0.0168    -0.0039 </r>
       <r>    -8.2784     0.0544     0.0001 </r>
       <r>    -8.2052     0.2190     0.0161 </r>
       <r>    -8.1319     0.4021     0.0456 </r>
       <r>    -8.0586     0.4572     0.0791 </r>
       <r>    -7.9853     0.3331     0.1035 </r>
       <r>    -7.9120     0.1410     0.1138 </r>
       <r>    -7.8388     0.0134     0.1148 </r>
       <r>    -7.7655    -0.0239     0.1130 </r>
       <r>    -7.6922    -0.0183     0.1117 </r>
       <r>    -7.6189    -0.0102     0.1110 </r>
       <r>    -7.5456    -0.0128     0.1100 </r>
       <r>    -7.4724    -0.0229     0.1083 </r>
       <r>    -7.3991    -0.0164     0.1071 </r>
       <r>    -7.3258     0.0553     0.1112 </r>
       <r>    -7.2525     0.2126     0.1268 </r>
       <r>    -7.1792     0.3724     0.1541 </r>
       <r>    -7.1059     0.4077     0.1839 </r>
       <r>    -7.0327     0.3497     0.2096 </r>
       <r>    -6.9594     0.4085     0.2395 </r>
       <r>    -6.8861     0.6673     0.2884 </r>
       <r>    -6.8128     0.8854     0.3533 </r>
       <r>    -6.7395     0.7839     0.4107 </r>
       <r>    -6.6663     0.4187     0.4414 </r>
       <r>    -6.5930     0.0887     0.4479 </r>
       <r>    -6.5197    -0.0066     0.4474 </r>
       <r>    -6.4464     0.1152     0.4559 </r>
       <r>    -6.3731     0.3251     0.4797 </r>
       <r>    -6.2998     0.5228     0.5180 </r>
       <r>    -6.2266     0.7066     0.5698 </r>
       <r>    -6.1533     0.8669     0.6333 </r>
       <r>    -6.0800     0.8887     0.6984 </r>
       <r>    -6.0067     0.7517     0.7535 </r>
       <r>    -5.9334     0.6851     0.8037 </r>
       <r>    -5.8602     0.8843     0.8685 </r>
       <r>    -5.7869     1.2431     0.9596 </r>
       <r>    -5.7136     1.5104     1.0703 </r>
       <r>    -5.6403     1.5113     1.1811 </r>
       <r>    -5.5670     1.1939     1.2685 </r>
       <r>    -5.4937     0.6716     1.3178 </r>
       <r>    -5.4205     0.2091     1.3331 </r>
       <r>    -5.3472     0.0484     1.3366 </r>
       <r>    -5.2739     0.2257     1.3532 </r>
       <r>    -5.2006     0.5412     1.3928 </r>
       <r>    -5.1273     0.7955     1.4511 </r>
       <r>    -5.0541     1.1613     1.5362 </r>
       <r>    -4.9808     2.0856     1.6891 </r>
       <r>    -4.9075     3.5493     1.9492 </r>
       <r>    -4.8342     4.6683     2.2913 </r>
       <r>    -4.7609     4.4507     2.6174 </r>
       <r>    -4.6876     2.9253     2.8318 </r>
       <r>    -4.6144     1.1409     2.9154 </r>
       <r>    -4.5411     0.0209     2.9169 </r>
       <r>    -4.4678    -0.3670     2.8900 </r>
       <r>    -4.3945    -0.3656     2.8632 </r>
       <r>    -4.3212     0.0029     2.8635 </r>
       <r>    -4.2480     1.0659     2.9416 </r>
       <r>    -4.1747     2.7864     3.1458 </r>
       <r>    -4.1014     4.2464     3.4569 </r>
       <r>    -4.0281     4.3463     3.7754 </r>
       <r>    -3.9548     3.1014     4.0027 </r>
       <r>    -3.8815     1.7125     4.1282 </r>
       <r>    -3.8083     1.2321     4.2185 </r>
       <r>    -3.7350     1.6541     4.3397 </r>
       <r>    -3.6617     2.4344     4.5181 </r>
       <r>    -3.5884     3.3333     4.7624 </r>
       <r>    -3.5151     4.3417     5.0806 </r>
       <r>    -3.4419     5.2182     5.4630 </r>
       <r>    -3.3686     5.7152     5.8818 </r>
       <r>    -3.2953     6.0679     6.3264 </r>
       <r>    -3.2220     6.7138     6.8184 </r>
       <r>    -3.1487     7.6721     7.3807 </r>
       <r>    -3.0754     8.6256     8.0128 </r>
       <r>    -3.0022     9.2979     8.6941 </r>
       <r>    -2.9289     9.3628     9.3803 </r>
       <r>    -2.8556     8.5320    10.0055 </r>
       <r>    -2.7823     7.1975    10.5329 </r>
       <r>    -2.7090     6.4927    11.0087 </r>
       <r>    -2.6358     7.1148    11.5301 </r>
       <r>    -2.5625     8.3992    12.1456 </r>
       <r>    -2.4892     9.3102    12.8279 </r>
       <r>    -2.4159     9.9248    13.5552 </r>
       <r>    -2.3426    10.8372    14.3494 </r>
       <r>    -2.2693    11.6933    15.2063 </r>
       <r>    -2.1961    11.8712    16.0762 </r>
       <r>    -2.1228    12.1583    16.9672 </r>
       <r>    -2.0495    13.8691    17.9836 </r>
       <r>    -1.9762    16.3516    19.1818 </r>
       <r>    -1.9029    17.3118    20.4505 </r>
       <r>    -1.8297    15.8759    21.6139 </r>
       <r>    -1.7564    13.6283    22.6126 </r>
       <r>    -1.6831    12.3271    23.5159 </r>
       <r>    -1.6098    11.8806    24.3866 </r>
       <r>    -1.5365    11.0143    25.1937 </r>
       <r>    -1.4632     9.3572    25.8794 </r>
       <r>    -1.3900     8.2270    26.4823 </r>
       <r>    -1.3167     9.2204    27.1580 </r>
       <r>    -1.2434    12.5763    28.0796 </r>
       <r>    -1.1701    17.0157    29.3266 </r>
       <r>    -1.0968    20.4371    30.8242 </r>
       <r>    -1.0236    20.9781    32.3615 </r>
       <r>    -0.9503    18.7028    33.7321 </r>
       <r>    -0.8770    16.1288    34.9141 </r>
       <r>    -0.8037    15.7233    36.0663 </r>
       <r>    -0.7304    17.2131    37.3277 </r>
       <r>    -0.6571    18.4968    38.6832 </r>
       <r>    -0.5839    18.2579    40.0212 </r>
       <r>    -0.5106    16.4930    41.2298 </r>
       <r>    -0.4373    13.5949    42.2260 </r>
       <r>    -0.3640    10.1334    42.9686 </r>
       <r>    -0.2907     6.9145    43.4754 </r>
       <r>    -0.2175     4.4778    43.8035 </r>
       <r>    -0.1442     2.7424    44.0045 </r>
       <r>    -0.0709     1.4056    44.1075 </r>
       <r>     0.0024     0.4245    44.1386 </r>
       <r>     0.0757    -0.1032    44.1310 </r>
       <r>     0.1490    -0.2508    44.1126 </r>
       <r>     0.2222    -0.1794    44.0995 </r>
       <r>     0.2955     0.1023    44.1070 </r>
       <r>     0.3688     0.6681    44.1559 </r>
       <r>     0.4421     1.4160    44.2597 </r>
       <r>     0.5154     2.0930    44.4131 </r>
       <r>     0.5886     2.5473    44.5998 </r>
       <r>     0.6619     2.6826    44.7963 </r>
       <r>     0.7352     2.3136    44.9659 </r>
       <r>     0.8085     1.4771    45.0741 </r>
       <r>     0.8818     0.6808    45.1240 </r>
       <r>     0.9551     0.4265    45.1553 </r>
       <r>     1.0283     0.6330    45.2017 </r>
       <r>     1.1016     0.7950    45.2599 </r>
       <r>     1.1749     0.6331    45.3063 </r>
       <r>     1.2482     0.3785    45.3341 </r>
       <r>     1.3215     0.3806    45.3619 </r>
       <r>     1.3947     0.6225    45.4076 </r>
       <r>     1.4680     0.8185    45.4675 </r>
       <r>     1.5413     0.9285    45.5356 </r>
       <r>     1.6146     1.2142    45.6246 </r>
       <r>     1.6879     1.6467    45.7452 </r>
       <r>     1.7612     1.7220    45.8714 </r>
       <r>     1.8344     1.1865    45.9584 </r>
       <r>     1.9077     0.5335    45.9975 </r>
       <r>     1.9810     0.4594    46.0311 </r>
       <r>     2.0543     1.0428    46.1076 </r>
       <r>     2.1276     1.6428    46.2279 </r>
       <r>     2.2008     1.6357    46.3478 </r>
       <r>     2.2741     1.1587    46.4327 </r>
       <r>     2.3474     0.8552    46.4954 </r>
       <r>     2.4207     1.0045    46.5690 </r>
       <r>     2.4940     1.3633    46.6689 </r>
       <r>     2.5673     1.7243    46.7953 </r>
       <r>     2.6405     2.0625    46.9464 </r>
       <r>     2.7138     2.2340    47.1101 </r>
       <r>     2.7871     2.0712    47.2619 </r>
       <r>     2.8604     1.7115    47.3873 </r>
       <r>     2.9337     1.4604    47.4944 </r>
       <r>     3.0069     1.3867    47.5960 </r>
       <r>     3.0802     1.2587    47.6882 </r>
       <r>     3.1535     0.8919    47.7536 </r>
       <r>     3.2268     0.4092    47.7836 </r>
       <r>     3.3001     0.0642    47.7883 </r>
       <r>     3.3734    -0.0590    47.7839 </r>
       <r>     3.4466    -0.0564    47.7798 </r>
       <r>     3.5199    -0.0399    47.7769 </r>
       <r>     3.5932    -0.0634    47.7722 </r>
       <r>     3.6665    -0.1297    47.7627 </r>
       <r>     3.7398    -0.1415    47.7524 </r>
       <r>     3.8130     0.1638    47.7644 </r>
       <r>     3.8863     1.0467    47.8411 </r>
       <r>     3.9596     2.3234    48.0113 </r>
       <r>     4.0329     3.2618    48.2504 </r>
       <r>     4.1062     3.2898    48.4914 </r>
       <r>     4.1795     2.6915    48.6887 </r>
       <r>     4.2527     2.1954    48.8496 </r>
       <r>     4.3260     2.0455    48.9995 </r>
       <r>     4.3993     1.9156    49.1398 </r>
       <r>     4.4726     1.5585    49.2541 </r>
       <r>     4.5459     1.0929    49.3341 </r>
       <r>     4.6191     0.7019    49.3856 </r>
       <r>     4.6924     0.3986    49.4148 </r>
       <r>     4.7657     0.1905    49.4288 </r>
       <r>     4.8390     0.2688    49.4485 </r>
       <r>     4.9123     0.7973    49.5069 </r>
       <r>     4.9856     1.5088    49.6174 </r>
       <r>     5.0588     1.7920    49.7488 </r>
       <r>     5.1321     1.3557    49.8481 </r>
       <r>     5.2054     0.5584    49.8890 </r>
       <r>     5.2787    -0.0581    49.8848 </r>
       <r>     5.3520    -0.2115    49.8693 </r>
       <r>     5.4252     0.2461    49.8873 </r>
       <r>     5.4985     1.3935    49.9894 </r>
       <r>     5.5718     2.8497    50.1983 </r>
       <r>     5.6451     3.6959    50.4691 </r>
       <r>     5.7184     3.3052    50.7113 </r>
       <r>     5.7917     2.1223    50.8668 </r>
       <r>     5.8649     1.2201    50.9562 </r>
       <r>     5.9382     1.2472    51.0476 </r>
       <r>     6.0115     2.0475    51.1977 </r>
       <r>     6.0848     2.9140    51.4112 </r>
       <r>     6.1581     3.0516    51.6349 </r>
       <r>     6.2313     2.2964    51.8031 </r>
       <r>     6.3046     1.4070    51.9062 </r>
       <r>     6.3779     1.2379    51.9970 </r>
       <r>     6.4512     1.7923    52.1283 </r>
       <r>     6.5245     2.3715    52.3021 </r>
       <r>     6.5978     2.4343    52.4805 </r>
       <r>     6.6710     2.1085    52.6350 </r>
       <r>     6.7443     1.8589    52.7712 </r>
       <r>     6.8176     1.7633    52.9004 </r>
       <r>     6.8909     1.5238    53.0121 </r>
       <r>     6.9642     1.2385    53.1029 </r>
       <r>     7.0374     1.4745    53.2109 </r>
       <r>     7.1107     2.3423    53.3826 </r>
       <r>     7.1840     3.1043    53.6100 </r>
       <r>     7.2573     3.0289    53.8320 </r>
       <r>     7.3306     2.2423    53.9963 </r>
       <r>     7.4039     1.3913    54.0983 </r>
       <r>     7.4771     0.8146    54.1580 </r>
       <r>     7.5504     0.5158    54.1958 </r>
       <r>     7.6237     0.6421    54.2428 </r>
       <r>     7.6970     1.4341    54.3479 </r>
       <r>     7.7703     2.7788    54.5516 </r>
       <r>     7.8435     4.1600    54.8564 </r>
       <r>     7.9168     5.0375    55.2256 </r>
       <r>     7.9901     5.0874    55.5984 </r>
       <r>     8.0634     4.2306    55.9084 </r>
       <r>     8.1367     2.8022    56.1138 </r>
       <r>     8.2100     1.6201    56.2325 </r>
       <r>     8.2832     1.4045    56.3354 </r>
       <r>     8.3565     2.0045    56.4823 </r>
       <r>     8.4298     2.5400    56.6684 </r>
       <r>     8.5031     2.3827    56.8431 </r>
       <r>     8.5764     1.7069    56.9681 </r>
       <r>     8.6496     1.1254    57.0506 </r>
       <r>     8.7229     1.0951    57.1309 </r>
       <r>     8.7962     1.5903    57.2474 </r>
       <r>     8.8695     2.0809    57.3999 </r>
       <r>     8.9428     1.9673    57.5441 </r>
       <r>     9.0161     1.2520    57.6358 </r>
       <r>     9.0893     0.5752    57.6780 </r>
       <r>     9.1626     0.4737    57.7127 </r>
       <r>     9.2359     0.8915    57.7780 </r>
       <r>     9.3092     1.4924    57.8874 </r>
       <r>     9.3825     2.1367    58.0440 </r>
       <r>     9.4557     2.9000    58.2565 </r>
       <r>     9.5290     3.8199    58.5364 </r>
       <r>     9.6023     4.6963    58.8806 </r>
       <r>     9.6756     5.0470    59.2504 </r>
       <r>     9.7489     4.4668    59.5777 </r>
       <r>     9.8222     3.1592    59.8093 </r>
       <r>     9.8954     1.7859    59.9401 </r>
       <r>     9.9687     0.7961    59.9985 </r>
       <r>    10.0420     0.2272    60.0151 </r>
       <r>    10.1153    -0.0292    60.0130 </r>
       <r>    10.1886    -0.0863    60.0067 </r>
       <r>    10.2618    -0.0583    60.0024 </r>
       <r>    10.3351    -0.0240    60.0006 </r>
       <r>    10.4084    -0.0068    60.0001 </r>
       <r>    10.4817    -0.0014    60.0000 </r>
       <r>    10.5550    -0.0002    60.0000 </r>
       <r>    10.6283    -0.0000    60.0000 </r>
       <r>    10.7015    -0.0000    60.0000 </r>
       <r>    10.7748    -0.0000    60.0000 </r>
       <r>    10.8481    -0.0000    60.0000 </r>
       <r>    10.9214    -0.0000    60.0000 </r>
       <r>    10.9947    -0.0000    60.0000 </r>
       <r>    11.0679    -0.0000    60.0000 </r>
       <r>    11.1412    -0.0000    60.0000 </r>
       <r>    11.2145     0.0000    60.0000 </r>
       <r>    11.2878     0.0000    60.0000 </r>
       <r>    11.3611     0.0000    60.0000 </r>
       <r>    11.4344     0.0000    60.0000 </r>
       <r>    11.5076     0.0000    60.0000 </r>
       <r>    11.5809     0.0000    60.0000 </r>
       <r>    11.6542     0.0000    60.0000 </r>
       <r>    11.7275     0.0000    60.0000 </r>
       <r>    11.8008     0.0000    60.0000 </r>
       <r>    11.8740     0.0000    60.0000 </r>
      </set>
     </set>
    </array>
   </total>
  </dos>
 </calculation>
 <structure name="finalpos" >
  <crystal>
   <varray name="basis" >
    <v>       3.63000011       0.00000000       0.00000000 </v>
    <v>       0.00000000       2.56679773       0.00000000 </v>
    <v>       0.00000000       0.00000000      23.98379135 </v>
   </varray>
   <i name="volume">    223.46840188 </i>
   <varray name="rec_basis" >
    <v>       0.27548208       0.00000000       0.00000000 </v>
    <v>       0.00000000       0.38959050       0.00000000 </v>
    <v>       0.00000000       0.00000000       0.04169483 </v>
   </varray>
  </crystal>
  <varray name="positions" >
   <v>       0.00000000       0.00000000      -0.00047147 </v>
   <v>       0.50000000       0.50000000       0.04682613 </v>
   <v>       0.00000000       0.00000000       0.10124047 </v>
   <v>       0.50000000       0.50000000       0.15345726 </v>
   <v>       0.00000000       0.00000000       0.20611524 </v>
   <v>       0.50000000       0.50000000       0.25831697 </v>
   <v>       0.00000000       0.00000000       0.31265220 </v>
   <v>       0.50000000       0.50000000       0.35972863 </v>
   <v>       1.00000000       0.50000000       0.44346610 </v>
   <v>       1.00000000       0.50000000       0.47510246 </v>
  </varray>
 </structure>
</modeling>
