unknown system                          
           1
     3.630000    0.000000    0.000000
     0.000000    2.566798    0.000000
     0.000000    0.000000   23.983791
   Cu   H 
     8     2
Direct configuration=     1
   0.00000000  0.00000000  0.00000000
   0.50000000  0.50000000  0.05351109
   0.00000000  0.00000000  0.10468148
   0.50000000  0.50000000  0.15792996
   0.00000000  0.00000000  0.21070899
   0.50000000  0.50000000  0.26289048
   0.00000000  0.00000000  0.31711592
   0.50000000  0.50000000  0.36467590
   1.00000000  0.50000000  0.42690792
   1.00000000  0.50000000  0.45801226
Direct configuration=     2
   0.00000000  0.00000000  0.00102952
   0.50000000  0.50000000  0.05255829
   0.00000000  0.00000000  0.10467126
   0.50000000  0.50000000  0.15804754
   0.00000000  0.00000000  0.21051533
   0.50000000  0.50000000  0.26292407
   0.00000000  0.00000000  0.31702732
   0.50000000  0.50000000  0.36424108
   1.00000000  0.50000000  0.42583595
   1.00000000  0.50000000  0.45958363
Direct configuration=     3
   0.00000000  0.00000000  0.00062311
   0.50000000  0.50000000  0.05293442
   0.00000000  0.00000000  0.10467529
   0.50000000  0.50000000  0.15800112
   0.00000000  0.00000000  0.21059178
   0.50000000  0.50000000  0.26291081
   0.00000000  0.00000000  0.31706230
   0.50000000  0.50000000  0.36441273
   1.00000000  0.50000000  0.42625912
   1.00000000  0.50000000  0.45896332
Direct configuration=     4
   0.00000000  0.00000000  0.00190203
   0.50000000  0.50000000  0.05178733
   0.00000000  0.00000000  0.10469903
   0.50000000  0.50000000  0.15811406
   0.00000000  0.00000000  0.21035561
   0.50000000  0.50000000  0.26293582
   0.00000000  0.00000000  0.31692828
   0.50000000  0.50000000  0.36388073
   1.00000000  0.50000000  0.42666833
   1.00000000  0.50000000  0.45916277
Direct configuration=     5
   0.00000000  0.00000000  0.00310597
   0.50000000  0.50000000  0.05070748
   0.00000000  0.00000000  0.10472138
   0.50000000  0.50000000  0.15822038
   0.00000000  0.00000000  0.21013328
   0.50000000  0.50000000  0.26295937
   0.00000000  0.00000000  0.31680212
   0.50000000  0.50000000  0.36337993
   1.00000000  0.50000000  0.42705356
   1.00000000  0.50000000  0.45935052
Direct configuration=     6
   0.00000000  0.00000000  0.00332239
   0.50000000  0.50000000  0.05051337
   0.00000000  0.00000000  0.10472540
   0.50000000  0.50000000  0.15823949
   0.00000000  0.00000000  0.21009331
   0.50000000  0.50000000  0.26296360
   0.00000000  0.00000000  0.31677945
   0.50000000  0.50000000  0.36328990
   1.00000000  0.50000000  0.42712281
   1.00000000  0.50000000  0.45938427
Direct configuration=     7
   0.00000000  0.00000000  0.00335099
   0.50000000  0.50000000  0.05067123
   0.00000000  0.00000000  0.10489232
   0.50000000  0.50000000  0.15794431
   0.00000000  0.00000000  0.21003027
   0.50000000  0.50000000  0.26267666
   0.00000000  0.00000000  0.31662940
   0.50000000  0.50000000  0.36322917
   1.00000000  0.50000000  0.42772522
   1.00000000  0.50000000  0.45928442
Direct configuration=     8
   0.00000000  0.00000000  0.00334527
   0.50000000  0.50000000  0.05063966
   0.00000000  0.00000000  0.10485894
   0.50000000  0.50000000  0.15800335
   0.00000000  0.00000000  0.21004288
   0.50000000  0.50000000  0.26273405
   0.00000000  0.00000000  0.31665941
   0.50000000  0.50000000  0.36324132
   1.00000000  0.50000000  0.42760473
   1.00000000  0.50000000  0.45930439
Direct configuration=     9
   0.00000000  0.00000000  0.00337304
   0.50000000  0.50000000  0.05077612
   0.00000000  0.00000000  0.10498167
   0.50000000  0.50000000  0.15778483
   0.00000000  0.00000000  0.20998676
   0.50000000  0.50000000  0.26251056
   0.00000000  0.00000000  0.31653165
   0.50000000  0.50000000  0.36316881
   1.00000000  0.50000000  0.42778493
   1.00000000  0.50000000  0.45953562
Direct configuration=    10
   0.00000000  0.00000000  0.00342153
   0.50000000  0.50000000  0.05101439
   0.00000000  0.00000000  0.10519597
   0.50000000  0.50000000  0.15740329
   0.00000000  0.00000000  0.20988878
   0.50000000  0.50000000  0.26212035
   0.00000000  0.00000000  0.31630857
   0.50000000  0.50000000  0.36304222
   1.00000000  0.50000000  0.42809955
   1.00000000  0.50000000  0.45993934
Direct configuration=    11
   0.00000000  0.00000000  0.00351850
   0.50000000  0.50000000  0.05149092
   0.00000000  0.00000000  0.10562457
   0.50000000  0.50000000  0.15664022
   0.00000000  0.00000000  0.20969283
   0.50000000  0.50000000  0.26133992
   0.00000000  0.00000000  0.31586242
   0.50000000  0.50000000  0.36278904
   1.00000000  0.50000000  0.42872880
   1.00000000  0.50000000  0.46074677
Direct configuration=    12
   0.00000000  0.00000000  0.00348466
   0.50000000  0.50000000  0.05132463
   0.00000000  0.00000000  0.10547501
   0.50000000  0.50000000  0.15690650
   0.00000000  0.00000000  0.20976121
   0.50000000  0.50000000  0.26161226
   0.00000000  0.00000000  0.31601810
   0.50000000  0.50000000  0.36287739
   1.00000000  0.50000000  0.42850922
   1.00000000  0.50000000  0.46046502
Direct configuration=    13
   0.00000000  0.00000000  0.00359467
   0.50000000  0.50000000  0.05131973
   0.00000000  0.00000000  0.10538172
   0.50000000  0.50000000  0.15691140
   0.00000000  0.00000000  0.20966745
   0.50000000  0.50000000  0.26152543
   0.00000000  0.00000000  0.31587976
   0.50000000  0.50000000  0.36265590
   1.00000000  0.50000000  0.42875692
   1.00000000  0.50000000  0.46074102
Direct configuration=    14
   0.00000000  0.00000000  0.00392469
   0.50000000  0.50000000  0.05130501
   0.00000000  0.00000000  0.10510184
   0.50000000  0.50000000  0.15692609
   0.00000000  0.00000000  0.20938618
   0.50000000  0.50000000  0.26126494
   0.00000000  0.00000000  0.31546475
   0.50000000  0.50000000  0.36199144
   1.00000000  0.50000000  0.42950001
   1.00000000  0.50000000  0.46156903
Direct configuration=    15
   0.00000000  0.00000000  0.00458474
   0.50000000  0.50000000  0.05127559
   0.00000000  0.00000000  0.10454209
   0.50000000  0.50000000  0.15695547
   0.00000000  0.00000000  0.20882363
   0.50000000  0.50000000  0.26074397
   0.00000000  0.00000000  0.31463472
   0.50000000  0.50000000  0.36066251
   1.00000000  0.50000000  0.43098621
   1.00000000  0.50000000  0.46322506
Direct configuration=    16
   0.00000000  0.00000000  0.00436689
   0.50000000  0.50000000  0.05128530
   0.00000000  0.00000000  0.10472684
   0.50000000  0.50000000  0.15694578
   0.00000000  0.00000000  0.20900930
   0.50000000  0.50000000  0.26091592
   0.00000000  0.00000000  0.31490867
   0.50000000  0.50000000  0.36110113
   1.00000000  0.50000000  0.43049568
   1.00000000  0.50000000  0.46267848
Direct configuration=    17
   0.00000000  0.00000000  0.00438937
   0.50000000  0.50000000  0.05125414
   0.00000000  0.00000000  0.10469003
   0.50000000  0.50000000  0.15695218
   0.00000000  0.00000000  0.20890125
   0.50000000  0.50000000  0.26081631
   0.00000000  0.00000000  0.31477284
   0.50000000  0.50000000  0.36094894
   1.00000000  0.50000000  0.43088021
   1.00000000  0.50000000  0.46282872
Direct configuration=    18
   0.00000000  0.00000000  0.00442734
   0.50000000  0.50000000  0.05120153
   0.00000000  0.00000000  0.10462789
   0.50000000  0.50000000  0.15696300
   0.00000000  0.00000000  0.20871882
   0.50000000  0.50000000  0.26064812
   0.00000000  0.00000000  0.31454351
   0.50000000  0.50000000  0.36069198
   1.00000000  0.50000000  0.43152943
   1.00000000  0.50000000  0.46308237
Direct configuration=    19
   0.00000000  0.00000000  0.00441517
   0.50000000  0.50000000  0.05121840
   0.00000000  0.00000000  0.10464782
   0.50000000  0.50000000  0.15695953
   0.00000000  0.00000000  0.20877731
   0.50000000  0.50000000  0.26070204
   0.00000000  0.00000000  0.31461704
   0.50000000  0.50000000  0.36077437
   1.00000000  0.50000000  0.43132127
   1.00000000  0.50000000  0.46300105
Direct configuration=    20
   0.00000000  0.00000000  0.00432203
   0.50000000  0.50000000  0.05115965
   0.00000000  0.00000000  0.10467760
   0.50000000  0.50000000  0.15694256
   0.00000000  0.00000000  0.20866349
   0.50000000  0.50000000  0.26058106
   0.00000000  0.00000000  0.31448726
   0.50000000  0.50000000  0.36070480
   1.00000000  0.50000000  0.43161756
   1.00000000  0.50000000  0.46327798
Direct configuration=    21
   0.00000000  0.00000000  0.00404261
   0.50000000  0.50000000  0.05098339
   0.00000000  0.00000000  0.10476696
   0.50000000  0.50000000  0.15689166
   0.00000000  0.00000000  0.20832204
   0.50000000  0.50000000  0.26021812
   0.00000000  0.00000000  0.31409792
   0.50000000  0.50000000  0.36049611
   1.00000000  0.50000000  0.43250640
   1.00000000  0.50000000  0.46410878
Direct configuration=    22
   0.00000000  0.00000000  0.00348377
   0.50000000  0.50000000  0.05063089
   0.00000000  0.00000000  0.10494566
   0.50000000  0.50000000  0.15678985
   0.00000000  0.00000000  0.20763915
   0.50000000  0.50000000  0.25949223
   0.00000000  0.00000000  0.31331923
   0.50000000  0.50000000  0.36007873
   1.00000000  0.50000000  0.43428410
   1.00000000  0.50000000  0.46577038
Direct configuration=    23
   0.00000000  0.00000000  0.00336436
   0.50000000  0.50000000  0.05055683
   0.00000000  0.00000000  0.10488537
   0.50000000  0.50000000  0.15668137
   0.00000000  0.00000000  0.20756254
   0.50000000  0.50000000  0.25938038
   0.00000000  0.00000000  0.31317200
   0.50000000  0.50000000  0.35999387
   1.00000000  0.50000000  0.43458249
   1.00000000  0.50000000  0.46625478
Direct configuration=    24
   0.00000000  0.00000000  0.00317111
   0.50000000  0.50000000  0.05043699
   0.00000000  0.00000000  0.10478780
   0.50000000  0.50000000  0.15650582
   0.00000000  0.00000000  0.20743857
   0.50000000  0.50000000  0.25919938
   0.00000000  0.00000000  0.31293373
   0.50000000  0.50000000  0.35985654
   1.00000000  0.50000000  0.43506538
   1.00000000  0.50000000  0.46703868
Direct configuration=    25
   0.00000000  0.00000000  0.00308826
   0.50000000  0.50000000  0.05037404
   0.00000000  0.00000000  0.10460577
   0.50000000  0.50000000  0.15631865
   0.00000000  0.00000000  0.20746389
   0.50000000  0.50000000  0.25918241
   0.00000000  0.00000000  0.31287237
   0.50000000  0.50000000  0.35979743
   1.00000000  0.50000000  0.43540741
   1.00000000  0.50000000  0.46732376
Direct configuration=    26
   0.00000000  0.00000000  0.00283970
   0.50000000  0.50000000  0.05018521
   0.00000000  0.00000000  0.10405970
   0.50000000  0.50000000  0.15575711
   0.00000000  0.00000000  0.20753986
   0.50000000  0.50000000  0.25913150
   0.00000000  0.00000000  0.31268831
   0.50000000  0.50000000  0.35962009
   1.00000000  0.50000000  0.43643350
   1.00000000  0.50000000  0.46817903
Direct configuration=    27
   0.00000000  0.00000000  0.00234257
   0.50000000  0.50000000  0.04980755
   0.00000000  0.00000000  0.10296755
   0.50000000  0.50000000  0.15463403
   0.00000000  0.00000000  0.20769178
   0.50000000  0.50000000  0.25902968
   0.00000000  0.00000000  0.31232018
   0.50000000  0.50000000  0.35926541
   1.00000000  0.50000000  0.43848568
   1.00000000  0.50000000  0.46988955
Direct configuration=    28
   0.00000000  0.00000000  0.00258550
   0.50000000  0.50000000  0.04999211
   0.00000000  0.00000000  0.10350126
   0.50000000  0.50000000  0.15518285
   0.00000000  0.00000000  0.20761754
   0.50000000  0.50000000  0.25907943
   0.00000000  0.00000000  0.31250008
   0.50000000  0.50000000  0.35943873
   1.00000000  0.50000000  0.43748283
   1.00000000  0.50000000  0.46905366
Direct configuration=    29
   0.00000000  0.00000000  0.00252290
   0.50000000  0.50000000  0.04994455
   0.00000000  0.00000000  0.10336372
   0.50000000  0.50000000  0.15504142
   0.00000000  0.00000000  0.20763667
   0.50000000  0.50000000  0.25906661
   0.00000000  0.00000000  0.31245372
   0.50000000  0.50000000  0.35939407
   1.00000000  0.50000000  0.43774126
   1.00000000  0.50000000  0.46926907
Direct configuration=    30
   0.00000000  0.00000000  0.00224414
   0.50000000  0.50000000  0.04966772
   0.00000000  0.00000000  0.10301805
   0.50000000  0.50000000  0.15469607
   0.00000000  0.00000000  0.20753560
   0.50000000  0.50000000  0.25896201
   0.00000000  0.00000000  0.31250424
   0.50000000  0.50000000  0.35935891
   1.00000000  0.50000000  0.43833198
   1.00000000  0.50000000  0.47011526
Direct configuration=    31
   0.00000000  0.00000000  0.00197621
   0.50000000  0.50000000  0.04940165
   0.00000000  0.00000000  0.10268581
   0.50000000  0.50000000  0.15436415
   0.00000000  0.00000000  0.20743845
   0.50000000  0.50000000  0.25886148
   0.00000000  0.00000000  0.31255280
   0.50000000  0.50000000  0.35932512
   1.00000000  0.50000000  0.43889975
   1.00000000  0.50000000  0.47092857
Direct configuration=    32
   0.00000000  0.00000000  0.00207392
   0.50000000  0.50000000  0.04949868
   0.00000000  0.00000000  0.10280697
   0.50000000  0.50000000  0.15448519
   0.00000000  0.00000000  0.20747388
   0.50000000  0.50000000  0.25889814
   0.00000000  0.00000000  0.31253510
   0.50000000  0.50000000  0.35933744
   1.00000000  0.50000000  0.43869269
   1.00000000  0.50000000  0.47063197
Direct configuration=    33
   0.00000000  0.00000000  0.00179732
   0.50000000  0.50000000  0.04920363
   0.00000000  0.00000000  0.10259824
   0.50000000  0.50000000  0.15428637
   0.00000000  0.00000000  0.20730259
   0.50000000  0.50000000  0.25877727
   0.00000000  0.00000000  0.31265225
   0.50000000  0.50000000  0.35937667
   1.00000000  0.50000000  0.43929840
   1.00000000  0.50000000  0.47114126
Direct configuration=    34
   0.00000000  0.00000000  0.00099132
   0.50000000  0.50000000  0.04834387
   0.00000000  0.00000000  0.10199004
   0.50000000  0.50000000  0.15370701
   0.00000000  0.00000000  0.20680347
   0.50000000  0.50000000  0.25842507
   0.00000000  0.00000000  0.31299363
   0.50000000  0.50000000  0.35949097
   1.00000000  0.50000000  0.44106334
   1.00000000  0.50000000  0.47262527
Direct configuration=    35
   0.00000000  0.00000000  0.00073447
   0.50000000  0.50000000  0.04806988
   0.00000000  0.00000000  0.10179622
   0.50000000  0.50000000  0.15352238
   0.00000000  0.00000000  0.20664441
   0.50000000  0.50000000  0.25831283
   0.00000000  0.00000000  0.31310242
   0.50000000  0.50000000  0.35952739
   1.00000000  0.50000000  0.44162579
   1.00000000  0.50000000  0.47309819
Direct configuration=    36
   0.00000000  0.00000000  0.00030411
   0.50000000  0.50000000  0.04761724
   0.00000000  0.00000000  0.10159031
   0.50000000  0.50000000  0.15339379
   0.00000000  0.00000000  0.20638707
   0.50000000  0.50000000  0.25819492
   0.00000000  0.00000000  0.31314604
   0.50000000  0.50000000  0.35960070
   1.00000000  0.50000000  0.44223363
   1.00000000  0.50000000  0.47396618
Direct configuration=    37
   0.00000000  0.00000000  0.00031376
   0.50000000  0.50000000  0.04762739
   0.00000000  0.00000000  0.10159492
   0.50000000  0.50000000  0.15339667
   0.00000000  0.00000000  0.20639283
   0.50000000  0.50000000  0.25819756
   0.00000000  0.00000000  0.31314506
   0.50000000  0.50000000  0.35959906
   1.00000000  0.50000000  0.44222000
   1.00000000  0.50000000  0.47394672
Direct configuration=    38
   0.00000000  0.00000000  0.00030451
   0.50000000  0.50000000  0.04761766
   0.00000000  0.00000000  0.10159050
   0.50000000  0.50000000  0.15339391
   0.00000000  0.00000000  0.20638730
   0.50000000  0.50000000  0.25819503
   0.00000000  0.00000000  0.31314600
   0.50000000  0.50000000  0.35960063
   1.00000000  0.50000000  0.44223307
   1.00000000  0.50000000  0.47396539
Direct configuration=    39
   0.00000000  0.00000000  0.00030913
   0.50000000  0.50000000  0.04762252
   0.00000000  0.00000000  0.10159271
   0.50000000  0.50000000  0.15339529
   0.00000000  0.00000000  0.20639007
   0.50000000  0.50000000  0.25819630
   0.00000000  0.00000000  0.31314553
   0.50000000  0.50000000  0.35959984
   1.00000000  0.50000000  0.44222654
   1.00000000  0.50000000  0.47395605
Direct configuration=    40
   0.00000000  0.00000000  0.00030509
   0.50000000  0.50000000  0.04761827
   0.00000000  0.00000000  0.10159077
   0.50000000  0.50000000  0.15339408
   0.00000000  0.00000000  0.20638765
   0.50000000  0.50000000  0.25819519
   0.00000000  0.00000000  0.31314594
   0.50000000  0.50000000  0.35960053
   1.00000000  0.50000000  0.44223225
   1.00000000  0.50000000  0.47396421
Direct configuration=    41
   0.00000000  0.00000000  0.00030682
   0.50000000  0.50000000  0.04762009
   0.00000000  0.00000000  0.10159160
   0.50000000  0.50000000  0.15339460
   0.00000000  0.00000000  0.20638869
   0.50000000  0.50000000  0.25819566
   0.00000000  0.00000000  0.31314576
   0.50000000  0.50000000  0.35960024
   1.00000000  0.50000000  0.44222980
   1.00000000  0.50000000  0.47396071
Direct configuration=    42
   0.00000000  0.00000000  0.00030545
   0.50000000  0.50000000  0.04761865
   0.00000000  0.00000000  0.10159095
   0.50000000  0.50000000  0.15339419
   0.00000000  0.00000000  0.20638787
   0.50000000  0.50000000  0.25819529
   0.00000000  0.00000000  0.31314590
   0.50000000  0.50000000  0.35960047
   1.00000000  0.50000000  0.44223174
   1.00000000  0.50000000  0.47396348
Direct configuration=    43
   0.00000000  0.00000000  0.00010738
   0.50000000  0.50000000  0.04741244
   0.00000000  0.00000000  0.10152846
   0.50000000  0.50000000  0.15342664
   0.00000000  0.00000000  0.20630311
   0.50000000  0.50000000  0.25821258
   0.00000000  0.00000000  0.31304623
   0.50000000  0.50000000  0.35964130
   1.00000000  0.50000000  0.44255170
   1.00000000  0.50000000  0.47420414
Direct configuration=    44
   0.00000000  0.00000000 -0.00020714
   0.50000000  0.50000000  0.04708497
   0.00000000  0.00000000  0.10142923
   0.50000000  0.50000000  0.15347818
   0.00000000  0.00000000  0.20616852
   0.50000000  0.50000000  0.25824005
   0.00000000  0.00000000  0.31288796
   0.50000000  0.50000000  0.35970613
   1.00000000  0.50000000  0.44305979
   1.00000000  0.50000000  0.47458630
Direct configuration=    45
   0.00000000  0.00000000 -0.00039077
   0.50000000  0.50000000  0.04690147
   0.00000000  0.00000000  0.10133196
   0.50000000  0.50000000  0.15348727
   0.00000000  0.00000000  0.20611382
   0.50000000  0.50000000  0.25827985
   0.00000000  0.00000000  0.31274359
   0.50000000  0.50000000  0.35972671
   1.00000000  0.50000000  0.44330419
   1.00000000  0.50000000  0.47493590
Direct configuration=    46
   0.00000000  0.00000000 -0.00046537
   0.50000000  0.50000000  0.04682692
   0.00000000  0.00000000  0.10129245
   0.50000000  0.50000000  0.15349096
   0.00000000  0.00000000  0.20609160
   0.50000000  0.50000000  0.25829602
   0.00000000  0.00000000  0.31268494
   0.50000000  0.50000000  0.35973507
   1.00000000  0.50000000  0.44340347
   1.00000000  0.50000000  0.47507793
Direct configuration=    47
   0.00000000  0.00000000 -0.00043430
   0.50000000  0.50000000  0.04685797
   0.00000000  0.00000000  0.10130890
   0.50000000  0.50000000  0.15348942
   0.00000000  0.00000000  0.20610086
   0.50000000  0.50000000  0.25828929
   0.00000000  0.00000000  0.31270937
   0.50000000  0.50000000  0.35973158
   1.00000000  0.50000000  0.44336212
   1.00000000  0.50000000  0.47501878
Direct configuration=    48
   0.00000000  0.00000000 -0.00045681
   0.50000000  0.50000000  0.04683548
   0.00000000  0.00000000  0.10129698
   0.50000000  0.50000000  0.15349053
   0.00000000  0.00000000  0.20609415
   0.50000000  0.50000000  0.25829416
   0.00000000  0.00000000  0.31269167
   0.50000000  0.50000000  0.35973411
   1.00000000  0.50000000  0.44339208
   1.00000000  0.50000000  0.47506163
Direct configuration=    49
   0.00000000  0.00000000 -0.00044556
   0.50000000  0.50000000  0.04684672
   0.00000000  0.00000000  0.10130294
   0.50000000  0.50000000  0.15348998
   0.00000000  0.00000000  0.20609750
   0.50000000  0.50000000  0.25829173
   0.00000000  0.00000000  0.31270052
   0.50000000  0.50000000  0.35973284
   1.00000000  0.50000000  0.44337710
   1.00000000  0.50000000  0.47504021
Direct configuration=    50
   0.00000000  0.00000000 -0.00047147
   0.50000000  0.50000000  0.04682613
   0.00000000  0.00000000  0.10124047
   0.50000000  0.50000000  0.15345726
   0.00000000  0.00000000  0.20611524
   0.50000000  0.50000000  0.25831697
   0.00000000  0.00000000  0.31265220
   0.50000000  0.50000000  0.35972863
   1.00000000  0.50000000  0.44346610
   1.00000000  0.50000000  0.47510246
