   7   7   0   0
  0.2247639E+02  0.2566798E-09  0.2566798E-09  0.2757469E-08  0.5000000E-15
  1.000000000000000E-004
  CAR 
 unknown system                          
     15.02647307     -9.76493815  301      1.47965465      1.00000000
     -9.765  0.0000E+00  0.0000E+00  0.0000E+00  0.0000E+00
     -9.682  0.0000E+00  0.0000E+00  0.0000E+00  0.0000E+00
     -9.600  0.0000E+00  0.0000E+00  0.0000E+00  0.0000E+00
     -9.517  0.0000E+00  0.0000E+00  0.0000E+00  0.0000E+00
     -9.434 -0.2174E-32 -0.2174E-32 -0.1797E-33 -0.1797E-33
     -9.352 -0.1723E-29 -0.1723E-29 -0.1426E-30 -0.1426E-30
     -9.269 -0.9688E-27 -0.9687E-27 -0.8020E-28 -0.8020E-28
     -9.186 -0.3858E-24 -0.3858E-24 -0.3197E-25 -0.3196E-25
     -9.104 -0.1088E-21 -0.1088E-21 -0.9024E-23 -0.9024E-23
     -9.021 -0.2172E-19 -0.2172E-19 -0.1804E-20 -0.1804E-20
     -8.939 -0.2973E-17 -0.2972E-17 -0.2475E-18 -0.2474E-18
     -8.856 -0.2957E-15 -0.2957E-15 -0.2469E-16 -0.2468E-16
     -8.773 -0.2069E-13 -0.2069E-13 -0.1735E-14 -0.1735E-14
     -8.691 -0.1019E-11 -0.1019E-11 -0.8594E-13 -0.8594E-13
     -8.608 -0.3520E-10 -0.3520E-10 -0.2995E-11 -0.2995E-11
     -8.525 -0.8499E-09 -0.8499E-09 -0.7323E-10 -0.7323E-10
     -8.443 -0.1425E-07 -0.1425E-07 -0.1251E-08 -0.1251E-08
     -8.360 -0.1645E-06 -0.1645E-06 -0.1484E-07 -0.1484E-07
     -8.277 -0.1285E-05 -0.1285E-05 -0.1211E-06 -0.1210E-06
     -8.195 -0.6587E-05 -0.6587E-05 -0.6654E-06 -0.6654E-06
     -8.112 -0.2052E-04 -0.2052E-04 -0.2361E-05 -0.2361E-05
     -8.030 -0.2884E-04 -0.2884E-04 -0.4745E-05 -0.4745E-05
     -7.947  0.3546E-04  0.3546E-04 -0.1814E-05 -0.1814E-05
     -7.864  0.2434E-03  0.2434E-03  0.1830E-04  0.1830E-04
     -7.782  0.5007E-03  0.5007E-03  0.5967E-04  0.5967E-04
     -7.699  0.5599E-03  0.5599E-03  0.1059E-03  0.1059E-03
     -7.616  0.3528E-03  0.3528E-03  0.1351E-03  0.1351E-03
     -7.534  0.9329E-04  0.9330E-04  0.1428E-03  0.1428E-03
     -7.451 -0.4107E-04 -0.4107E-04  0.1394E-03  0.1394E-03
     -7.368 -0.5168E-04 -0.5168E-04  0.1351E-03  0.1351E-03
     -7.286  0.5486E-04  0.5485E-04  0.1397E-03  0.1397E-03
     -7.203  0.2970E-03  0.2970E-03  0.1642E-03  0.1642E-03
     -7.121  0.5359E-03  0.5359E-03  0.2085E-03  0.2085E-03
     -7.038  0.5352E-03  0.5352E-03  0.2527E-03  0.2527E-03
     -6.955  0.2977E-03  0.2977E-03  0.2773E-03  0.2773E-03
     -6.873  0.6482E-04  0.6482E-04  0.2827E-03  0.2827E-03
     -6.790 -0.2534E-04 -0.2534E-04  0.2806E-03  0.2806E-03
     -6.707 -0.2656E-04 -0.2656E-04  0.2784E-03  0.2784E-03
     -6.625 -0.2001E-04 -0.2001E-04  0.2768E-03  0.2768E-03
     -6.542 -0.2902E-04 -0.2902E-04  0.2744E-03  0.2744E-03
     -6.459 -0.1646E-04 -0.1646E-04  0.2730E-03  0.2730E-03
     -6.377  0.1055E-03  0.1055E-03  0.2817E-03  0.2817E-03
     -6.294  0.3596E-03  0.3596E-03  0.3114E-03  0.3114E-03
     -6.212  0.5618E-03  0.5618E-03  0.3579E-03  0.3579E-03
     -6.129  0.4971E-03  0.4971E-03  0.3989E-03  0.3989E-03
     -6.046  0.2386E-03  0.2386E-03  0.4186E-03  0.4186E-03
     -5.964  0.3311E-04  0.3311E-04  0.4214E-03  0.4214E-03
     -5.881 -0.2906E-04 -0.2906E-04  0.4190E-03  0.4190E-03
     -5.798 -0.2033E-04 -0.2033E-04  0.4173E-03  0.4173E-03
     -5.716 -0.7373E-05 -0.7373E-05  0.4167E-03  0.4167E-03
     -5.633 -0.6474E-05 -0.6474E-05  0.4162E-03  0.4162E-03
     -5.550 -0.1797E-04 -0.1797E-04  0.4147E-03  0.4147E-03
     -5.468 -0.2997E-04 -0.2997E-04  0.4122E-03  0.4122E-03
     -5.385  0.1632E-04  0.1631E-04  0.4135E-03  0.4135E-03
     -5.302  0.2009E-03  0.2009E-03  0.4302E-03  0.4301E-03
     -5.220  0.4615E-03  0.4615E-03  0.4683E-03  0.4683E-03
     -5.137  0.5422E-03  0.5422E-03  0.5131E-03  0.5131E-03
     -5.055  0.2967E-03  0.2967E-03  0.5376E-03  0.5376E-03
     -4.972 -0.4455E-04 -0.4455E-04  0.5339E-03  0.5339E-03
     -4.889  0.5513E-04  0.5512E-04  0.5385E-03  0.5385E-03
     -4.807  0.1092E-02  0.1092E-02  0.6287E-03  0.6287E-03
     -4.724  0.2689E-02  0.2689E-02  0.8510E-03  0.8510E-03
     -4.641  0.3359E-02  0.3359E-02  0.1129E-02  0.1129E-02
     -4.559  0.2291E-02  0.2291E-02  0.1318E-02  0.1318E-02
     -4.476  0.7646E-03  0.7646E-03  0.1381E-02  0.1381E-02
     -4.393  0.6555E-03  0.6555E-03  0.1435E-02  0.1435E-02
     -4.311  0.2237E-02  0.2237E-02  0.1620E-02  0.1620E-02
     -4.228  0.3779E-02  0.3779E-02  0.1932E-02  0.1932E-02
     -4.146  0.3453E-02  0.3453E-02  0.2218E-02  0.2218E-02
     -4.063  0.1616E-02  0.1616E-02  0.2351E-02  0.2351E-02
     -3.980  0.1541E-03  0.1541E-03  0.2364E-02  0.2364E-02
     -3.898  0.2674E-03  0.2674E-03  0.2386E-02  0.2386E-02
     -3.815  0.1743E-02  0.1743E-02  0.2530E-02  0.2530E-02
     -3.732  0.3215E-02  0.3215E-02  0.2796E-02  0.2796E-02
     -3.650  0.3284E-02  0.3284E-02  0.3067E-02  0.3067E-02
     -3.567  0.2169E-02  0.2169E-02  0.3246E-02  0.3246E-02
     -3.484  0.1311E-02  0.1311E-02  0.3355E-02  0.3355E-02
     -3.402  0.1613E-02  0.1613E-02  0.3488E-02  0.3488E-02
     -3.319  0.2749E-02  0.2749E-02  0.3715E-02  0.3715E-02
     -3.237  0.3370E-02  0.3370E-02  0.3994E-02  0.3994E-02
     -3.154  0.2512E-02  0.2512E-02  0.4201E-02  0.4201E-02
     -3.071  0.1194E-02  0.1194E-02  0.4300E-02  0.4300E-02
     -2.989  0.1169E-02  0.1169E-02  0.4396E-02  0.4396E-02
     -2.906  0.2474E-02  0.2474E-02  0.4601E-02  0.4601E-02
     -2.823  0.3943E-02  0.3943E-02  0.4927E-02  0.4927E-02
     -2.741  0.5611E-02  0.5611E-02  0.5390E-02  0.5390E-02
     -2.658  0.8523E-02  0.8523E-02  0.6095E-02  0.6095E-02
     -2.575  0.1219E-01  0.1219E-01  0.7102E-02  0.7102E-02
     -2.493  0.1420E-01  0.1420E-01  0.8276E-02  0.8276E-02
     -2.410  0.1297E-01  0.1297E-01  0.9347E-02  0.9347E-02
     -2.328  0.9692E-02  0.9692E-02  0.1015E-01  0.1015E-01
     -2.245  0.6617E-02  0.6617E-02  0.1069E-01  0.1069E-01
     -2.162  0.5052E-02  0.5052E-02  0.1111E-01  0.1111E-01
     -2.080  0.5281E-02  0.5281E-02  0.1155E-01  0.1155E-01
     -1.997  0.6543E-02  0.6543E-02  0.1209E-01  0.1209E-01
     -1.914  0.7618E-02  0.7618E-02  0.1272E-01  0.1272E-01
     -1.832  0.8336E-02  0.8336E-02  0.1341E-01  0.1341E-01
     -1.749  0.9775E-02  0.9775E-02  0.1422E-01  0.1422E-01
     -1.666  0.1257E-01  0.1257E-01  0.1525E-01  0.1525E-01
     -1.584  0.1563E-01  0.1563E-01  0.1655E-01  0.1655E-01
     -1.501  0.1722E-01  0.1722E-01  0.1797E-01  0.1797E-01
     -1.418  0.1695E-01  0.1695E-01  0.1937E-01  0.1937E-01
     -1.336  0.1572E-01  0.1572E-01  0.2067E-01  0.2067E-01
     -1.253  0.1383E-01  0.1383E-01  0.2181E-01  0.2181E-01
     -1.171  0.1084E-01  0.1084E-01  0.2271E-01  0.2271E-01
     -1.088  0.7803E-02  0.7803E-02  0.2335E-01  0.2335E-01
     -1.005  0.6847E-02  0.6847E-02  0.2392E-01  0.2392E-01
     -0.923  0.8571E-02  0.8571E-02  0.2463E-01  0.2463E-01
     -0.840  0.1193E-01  0.1193E-01  0.2561E-01  0.2561E-01
     -0.757  0.1558E-01  0.1558E-01  0.2690E-01  0.2690E-01
     -0.675  0.1788E-01  0.1788E-01  0.2838E-01  0.2838E-01
     -0.592  0.1833E-01  0.1833E-01  0.2989E-01  0.2989E-01
     -0.509  0.1924E-01  0.1924E-01  0.3148E-01  0.3148E-01
     -0.427  0.2202E-01  0.2202E-01  0.3330E-01  0.3330E-01
     -0.344  0.2440E-01  0.2440E-01  0.3532E-01  0.3532E-01
     -0.262  0.2386E-01  0.2386E-01  0.3729E-01  0.3729E-01
     -0.179  0.2067E-01  0.2067E-01  0.3900E-01  0.3900E-01
     -0.096  0.1666E-01  0.1666E-01  0.4038E-01  0.4038E-01
     -0.014  0.1304E-01  0.1304E-01  0.4145E-01  0.4145E-01
      0.069  0.1046E-01  0.1046E-01  0.4232E-01  0.4232E-01
      0.152  0.9788E-02  0.9788E-02  0.4313E-01  0.4313E-01
      0.234  0.1083E-01  0.1083E-01  0.4402E-01  0.4402E-01
      0.317  0.1168E-01  0.1168E-01  0.4499E-01  0.4499E-01
      0.400  0.1128E-01  0.1128E-01  0.4592E-01  0.4592E-01
      0.482  0.1018E-01  0.1018E-01  0.4676E-01  0.4676E-01
      0.565  0.8211E-02  0.8211E-02  0.4744E-01  0.4744E-01
      0.647  0.4938E-02  0.4938E-02  0.4785E-01  0.4785E-01
      0.730  0.1625E-02  0.1625E-02  0.4798E-01  0.4798E-01
      0.813 -0.1346E-03 -0.1346E-03  0.4797E-01  0.4797E-01
      0.895 -0.4224E-03 -0.4224E-03  0.4793E-01  0.4793E-01
      0.978 -0.1541E-03 -0.1541E-03  0.4792E-01  0.4792E-01
      1.061  0.1993E-03  0.1993E-03  0.4794E-01  0.4794E-01
      1.143  0.4740E-03  0.4740E-03  0.4798E-01  0.4798E-01
      1.226  0.4659E-03  0.4659E-03  0.4801E-01  0.4801E-01
      1.309  0.1940E-03  0.1940E-03  0.4803E-01  0.4803E-01
      1.391  0.1321E-03  0.1321E-03  0.4804E-01  0.4804E-01
      1.474  0.8890E-03  0.8889E-03  0.4812E-01  0.4812E-01
      1.556  0.2457E-02  0.2457E-02  0.4832E-01  0.4832E-01
      1.639  0.3686E-02  0.3686E-02  0.4862E-01  0.4862E-01
      1.722  0.3302E-02  0.3302E-02  0.4890E-01  0.4890E-01
      1.804  0.1674E-02  0.1674E-02  0.4903E-01  0.4903E-01
      1.887  0.2956E-03  0.2956E-03  0.4906E-01  0.4906E-01
      1.970 -0.1746E-03 -0.1746E-03  0.4904E-01  0.4904E-01
      2.052 -0.1404E-03 -0.1404E-03  0.4903E-01  0.4903E-01
      2.135 -0.4799E-04 -0.4800E-04  0.4903E-01  0.4903E-01
      2.218 -0.9874E-05 -0.9874E-05  0.4903E-01  0.4903E-01
      2.300 -0.1330E-05 -0.1330E-05  0.4903E-01  0.4903E-01
      2.383 -0.1548E-06 -0.1548E-06  0.4903E-01  0.4903E-01
      2.465 -0.4545E-06 -0.4545E-06  0.4903E-01  0.4903E-01
      2.548 -0.4000E-05 -0.4000E-05  0.4903E-01  0.4903E-01
      2.631 -0.2380E-04 -0.2380E-04  0.4903E-01  0.4903E-01
      2.713 -0.8914E-04 -0.8913E-04  0.4902E-01  0.4902E-01
      2.796 -0.1772E-03 -0.1772E-03  0.4900E-01  0.4900E-01
      2.879 -0.4171E-05 -0.4178E-05  0.4900E-01  0.4900E-01
      2.961  0.9421E-03  0.9421E-03  0.4908E-01  0.4908E-01
      3.044  0.2535E-02  0.2535E-02  0.4929E-01  0.4929E-01
      3.127  0.3442E-02  0.3442E-02  0.4957E-01  0.4957E-01
      3.209  0.2665E-02  0.2665E-02  0.4980E-01  0.4980E-01
      3.292  0.1067E-02  0.1067E-02  0.4988E-01  0.4988E-01
      3.375  0.4107E-04  0.4108E-04  0.4989E-01  0.4989E-01
      3.457 -0.1795E-03 -0.1795E-03  0.4987E-01  0.4987E-01
      3.540 -0.9743E-04 -0.9743E-04  0.4986E-01  0.4986E-01
      3.622 -0.2721E-04 -0.2721E-04  0.4986E-01  0.4986E-01
      3.705 -0.4746E-05 -0.4746E-05  0.4986E-01  0.4986E-01
      3.788 -0.5488E-06 -0.5488E-06  0.4986E-01  0.4986E-01
      3.870 -0.4333E-07 -0.4333E-07  0.4986E-01  0.4986E-01
      3.953 -0.5827E-08 -0.5827E-08  0.4986E-01  0.4986E-01
      4.036 -0.6075E-07 -0.6075E-07  0.4986E-01  0.4986E-01
      4.118 -0.7355E-06 -0.7355E-06  0.4986E-01  0.4986E-01
      4.201 -0.6143E-05 -0.6143E-05  0.4986E-01  0.4986E-01
      4.284 -0.3467E-04 -0.3467E-04  0.4986E-01  0.4986E-01
      4.366 -0.1265E-03 -0.1265E-03  0.4985E-01  0.4985E-01
      4.449 -0.2607E-03 -0.2607E-03  0.4983E-01  0.4983E-01
      4.531 -0.9134E-04 -0.9134E-04  0.4982E-01  0.4982E-01
      4.614  0.1112E-02  0.1112E-02  0.4991E-01  0.4991E-01
      4.697  0.3567E-02  0.3566E-02  0.5020E-01  0.5020E-01
      4.779  0.5909E-02  0.5909E-02  0.5069E-01  0.5069E-01
      4.862  0.6237E-02  0.6237E-02  0.5121E-01  0.5121E-01
      4.945  0.4437E-02  0.4437E-02  0.5158E-01  0.5158E-01
      5.027  0.2139E-02  0.2139E-02  0.5175E-01  0.5175E-01
      5.110  0.7008E-03  0.7009E-03  0.5181E-01  0.5181E-01
      5.193  0.4841E-03  0.4841E-03  0.5185E-01  0.5185E-01
      5.275  0.1185E-02  0.1185E-02  0.5195E-01  0.5195E-01
      5.358  0.1932E-02  0.1932E-02  0.5211E-01  0.5211E-01
      5.440  0.1879E-02  0.1879E-02  0.5226E-01  0.5226E-01
      5.523  0.1082E-02  0.1082E-02  0.5235E-01  0.5235E-01
      5.606  0.2739E-03  0.2740E-03  0.5237E-01  0.5237E-01
      5.688 -0.9887E-04 -0.9886E-04  0.5237E-01  0.5237E-01
      5.771 -0.1259E-03 -0.1264E-03  0.5236E-01  0.5236E-01
      5.854  0.9193E-05  0.7922E-05  0.5236E-01  0.5236E-01
      5.936  0.2481E-03  0.2469E-03  0.5238E-01  0.5238E-01
      6.019  0.7180E-03  0.7181E-03  0.5244E-01  0.5244E-01
      6.102  0.1866E-02  0.1867E-02  0.5259E-01  0.5259E-01
      6.184  0.3868E-02  0.3868E-02  0.5291E-01  0.5291E-01
      6.267  0.5506E-02  0.5505E-02  0.5337E-01  0.5337E-01
      6.349  0.5045E-02  0.5045E-02  0.5378E-01  0.5378E-01
      6.432  0.2829E-02  0.2831E-02  0.5402E-01  0.5402E-01
      6.515  0.1039E-02  0.1041E-02  0.5410E-01  0.5410E-01
      6.597  0.6630E-03  0.6629E-03  0.5416E-01  0.5416E-01
      6.680  0.8790E-03  0.8769E-03  0.5423E-01  0.5423E-01
      6.763  0.1122E-02  0.1119E-02  0.5432E-01  0.5432E-01
      6.845  0.1690E-02  0.1689E-02  0.5446E-01  0.5446E-01
      6.928  0.2421E-02  0.2423E-02  0.5466E-01  0.5466E-01
      7.011  0.2548E-02  0.2551E-02  0.5487E-01  0.5487E-01
      7.093  0.2014E-02  0.2015E-02  0.5504E-01  0.5504E-01
      7.176  0.1441E-02  0.1441E-02  0.5516E-01  0.5516E-01
      7.258  0.9912E-03  0.9910E-03  0.5524E-01  0.5524E-01
      7.341  0.4956E-03  0.4955E-03  0.5528E-01  0.5528E-01
      7.424  0.8701E-04  0.8705E-04  0.5529E-01  0.5529E-01
      7.506 -0.8270E-04 -0.8255E-04  0.5528E-01  0.5528E-01
      7.589 -0.1190E-03 -0.1189E-03  0.5527E-01  0.5527E-01
      7.672 -0.1380E-03 -0.1388E-03  0.5526E-01  0.5526E-01
      7.754 -0.3128E-04 -0.3356E-04  0.5526E-01  0.5526E-01
      7.837  0.5475E-03  0.5451E-03  0.5530E-01  0.5530E-01
      7.920  0.1875E-02  0.1875E-02  0.5546E-01  0.5546E-01
      8.002  0.3546E-02  0.3549E-02  0.5575E-01  0.5575E-01
      8.085  0.4505E-02  0.4507E-02  0.5612E-01  0.5612E-01
      8.168  0.4136E-02  0.4136E-02  0.5646E-01  0.5646E-01
      8.250  0.2898E-02  0.2896E-02  0.5670E-01  0.5670E-01
      8.333  0.1887E-02  0.1885E-02  0.5686E-01  0.5686E-01
      8.415  0.2043E-02  0.2043E-02  0.5703E-01  0.5703E-01
      8.498  0.3062E-02  0.3064E-02  0.5728E-01  0.5728E-01
      8.581  0.3379E-02  0.3381E-02  0.5756E-01  0.5756E-01
      8.663  0.2215E-02  0.2216E-02  0.5774E-01  0.5774E-01
      8.746  0.6064E-03  0.6068E-03  0.5779E-01  0.5779E-01
      8.829 -0.2572E-03 -0.2572E-03  0.5777E-01  0.5777E-01
      8.911 -0.7269E-04 -0.7342E-04  0.5777E-01  0.5777E-01
      8.994  0.1133E-02  0.1132E-02  0.5786E-01  0.5786E-01
      9.077  0.2765E-02  0.2764E-02  0.5809E-01  0.5809E-01
      9.159  0.3362E-02  0.3362E-02  0.5837E-01  0.5837E-01
      9.242  0.2284E-02  0.2286E-02  0.5856E-01  0.5856E-01
      9.324  0.8061E-03  0.8078E-03  0.5862E-01  0.5862E-01
      9.407  0.3776E-03  0.3778E-03  0.5865E-01  0.5865E-01
      9.490  0.1146E-02  0.1143E-02  0.5875E-01  0.5875E-01
      9.572  0.2555E-02  0.2549E-02  0.5896E-01  0.5896E-01
      9.655  0.3979E-02  0.3972E-02  0.5929E-01  0.5929E-01
      9.738  0.4881E-02  0.4871E-02  0.5969E-01  0.5969E-01
      9.820  0.5112E-02  0.5102E-02  0.6011E-01  0.6011E-01
      9.903  0.4547E-02  0.4546E-02  0.6049E-01  0.6049E-01
      9.986  0.3001E-02  0.3014E-02  0.6074E-01  0.6074E-01
     10.068  0.1281E-02  0.1295E-02  0.6084E-01  0.6084E-01
     10.151  0.8559E-03  0.8582E-03  0.6091E-01  0.6091E-01
     10.233  0.2112E-02  0.2105E-02  0.6109E-01  0.6109E-01
     10.316  0.3718E-02  0.3713E-02  0.6140E-01  0.6139E-01
     10.399  0.3867E-02  0.3870E-02  0.6172E-01  0.6171E-01
     10.481  0.2329E-02  0.2337E-02  0.6191E-01  0.6191E-01
     10.564  0.6420E-03  0.6478E-03  0.6196E-01  0.6196E-01
     10.647  0.6237E-04  0.6434E-04  0.6197E-01  0.6197E-01
     10.729  0.5275E-03  0.5271E-03  0.6201E-01  0.6201E-01
     10.812  0.1512E-02  0.1510E-02  0.6214E-01  0.6214E-01
     10.895  0.2697E-02  0.2694E-02  0.6236E-01  0.6236E-01
     10.977  0.3660E-02  0.3654E-02  0.6266E-01  0.6266E-01
     11.060  0.4028E-02  0.4017E-02  0.6299E-01  0.6299E-01
     11.142  0.3992E-02  0.3981E-02  0.6332E-01  0.6332E-01
     11.225  0.3521E-02  0.3523E-02  0.6361E-01  0.6361E-01
     11.308  0.2370E-02  0.2381E-02  0.6381E-01  0.6381E-01
     11.390  0.1501E-02  0.1507E-02  0.6393E-01  0.6393E-01
     11.473  0.2069E-02  0.2063E-02  0.6411E-01  0.6410E-01
     11.556  0.3154E-02  0.3150E-02  0.6437E-01  0.6436E-01
     11.638  0.2943E-02  0.2950E-02  0.6461E-01  0.6461E-01
     11.721  0.1485E-02  0.1496E-02  0.6473E-01  0.6473E-01
     11.804  0.2341E-03  0.2396E-03  0.6475E-01  0.6475E-01
     11.886 -0.1710E-03 -0.1705E-03  0.6474E-01  0.6474E-01
     11.969 -0.1265E-03 -0.1271E-03  0.6473E-01  0.6473E-01
     12.052 -0.4134E-04 -0.4173E-04  0.6472E-01  0.6472E-01
     12.134 -0.8184E-05 -0.8286E-05  0.6472E-01  0.6472E-01
     12.217 -0.1063E-05 -0.1080E-05  0.6472E-01  0.6472E-01
     12.299 -0.1285E-06 -0.1295E-06  0.6472E-01  0.6472E-01
     12.382 -0.3785E-06 -0.3728E-06  0.6472E-01  0.6472E-01
     12.465 -0.2679E-05 -0.2645E-05  0.6472E-01  0.6472E-01
     12.547 -0.1272E-04 -0.1260E-04  0.6472E-01  0.6472E-01
     12.630 -0.3699E-04 -0.3680E-04  0.6472E-01  0.6472E-01
     12.713 -0.4781E-04 -0.4803E-04  0.6471E-01  0.6471E-01
     12.795  0.6934E-04  0.6769E-04  0.6472E-01  0.6472E-01
     12.878  0.4349E-03  0.4316E-03  0.6476E-01  0.6476E-01
     12.961  0.9078E-03  0.9053E-03  0.6483E-01  0.6483E-01
     13.043  0.1077E-02  0.1078E-02  0.6492E-01  0.6492E-01
     13.126  0.7654E-03  0.7687E-03  0.6498E-01  0.6498E-01
     13.208  0.2888E-03  0.2915E-03  0.6501E-01  0.6501E-01
     13.291  0.7095E-05  0.8013E-05  0.6501E-01  0.6501E-01
     13.374 -0.5085E-04 -0.5090E-04  0.6500E-01  0.6500E-01
     13.456 -0.2781E-04 -0.2798E-04  0.6500E-01  0.6500E-01
     13.539 -0.8029E-05 -0.8104E-05  0.6500E-01  0.6500E-01
     13.622 -0.1469E-05 -0.1487E-05  0.6500E-01  0.6500E-01
     13.704 -0.1800E-06 -0.1826E-06  0.6500E-01  0.6500E-01
     13.787 -0.1512E-07 -0.1537E-07  0.6500E-01  0.6500E-01
     13.870 -0.8814E-09 -0.8976E-09  0.6500E-01  0.6500E-01
     13.952 -0.3589E-10 -0.3663E-10  0.6500E-01  0.6500E-01
     14.035 -0.1026E-11 -0.1049E-11  0.6500E-01  0.6500E-01
     14.117 -0.2063E-13 -0.2113E-13  0.6500E-01  0.6500E-01
     14.200 -0.2922E-15 -0.3008E-15  0.6500E-01  0.6500E-01
     14.283 -0.2986E-17 -0.2986E-17  0.6500E-01  0.6500E-01
     14.365  0.0000E+00  0.0000E+00  0.6500E-01  0.6500E-01
     14.448  0.0000E+00  0.0000E+00  0.6500E-01  0.6500E-01
     14.531  0.0000E+00  0.0000E+00  0.6500E-01  0.6500E-01
     14.613  0.0000E+00  0.0000E+00  0.6500E-01  0.6500E-01
     14.696  0.0000E+00  0.0000E+00  0.6500E-01  0.6500E-01
     14.779  0.0000E+00  0.0000E+00  0.6500E-01  0.6500E-01
     14.861  0.0000E+00  0.0000E+00  0.6500E-01  0.6500E-01
     14.944  0.0000E+00  0.0000E+00  0.6500E-01  0.6500E-01
     15.026  0.0000E+00  0.0000E+00  0.6500E-01  0.6500E-01
