 vasp.6.3.2 27Jun22 (build Aug 17 2022 15:43:34) complex                        
  
 executed on           tv2STDVTST date 2025.01.17  13:53:07
 running   20 mpi-ranks, with    1 threads/rank
 distrk:  each k-point on   20 cores,    1 groups
 distr:  one band on NCORE=   5 cores,    4 groups


--------------------------------------------------------------------------------------------------------


 -----------------------------------------------------------------------------
|                                                                             |
|           W    W    AA    RRRRR   N    N  II  N    N   GGGG   !!!           |
|           W    W   A  A   R    R  NN   N  II  NN   N  G    G  !!!           |
|           W    W  A    A  R    R  N N  N  II  N N  N  G       !!!           |
|           W WW W  AAAAAA  RRRRR   N  N N  II  N  N N  G  GGG   !            |
|           WW  WW  A    A  R   R   N   NN  II  N   NN  G    G                |
|           W    W  A    A  R    R  N    N  II  N    N   GGGG   !!!           |
|                                                                             |
|     Found issues when parsing the INCAR file                                |
|     In line 64: Tagname --- R W I G S contains invalid characters.          |
|     Please check if the interpretation in the OUTCAR file is correct.       |
|                                                                             |
 -----------------------------------------------------------------------------

 INCAR:
    = \=\=\=\=\=\=\=\=\=\=\=\=\=\=\=\=\=\=\=\=\=\=\=\=\=\=\=\=\=\=\=\=\=\=\=\=\=\=\=\=\=\=\=\=\=\=\=\=\=\=\=\=\=\=\=\=\=\=\=\=\=\=\=\=\=\=\=\=\=\=\=\=
    = \=\=\=\=\=\=\=\=\=\=\=\=\=\=\=\=\=\=\=\=\=\=\=\=\=\=\=\=\=\=\=\=\=\=\=\=\=\=\=\=\=\=\=\=\=\=\=\=\=\=\=\=\=\=\=\=\=\=\=\=\=\=\=\=\=\=\=\=\=\=\=\=
   ISTART = 0
   ICHARG = 2
   IPIPOL = 3
   IVDW = 11
   IDIPOL = 3
   IVDW = 11
    = \=\=\=\=\=\=\=\=\=\=\=\=\=\=\=\=\=\=\=\=\=\=\=\=\=\=\=\=\=\=\=\=\=\=\=\=\=\=\=\=\=\=\=\=\=\=\=\=\=\=\=\=\=\=\=\=\=\=\=\=\=\=\=\=\=\=\=\=\=\=\=\=
    = \=\=\=\=\=\=\=\=\=\=\=\=\=\=\=\=\=\=\=\=\=\=\=\=\=\=\=\=\=\=\=\=\=\=\=\=\=\=\=\=\=\=\=\=\=\=\=\=\=\=\=\=\=\=\=\=\=\=\=\=\=\=\=\=\=\=\=\=\=\=\=\=
   ISPIN = 2
    = \=\=\=\=\=\=\=\=\=\=\=\=\=\=\=\=\=\=\=\=\=\=\=\=\=\=\=\=\=\=\=\=\=\=\=\=\=\=\=\=\=\=\=\=\=\=\=\=\=\=\=\=\=\=\=\=\=\=\=\=\=\=\=\=\=\=\=\=\=\=\=\=
    = \=\=\=\=\=\=\=\=\=\=\=\=\=\=\=\=\=\=\=\=\=\=\=\=\=\=\=\=\=\=\=\=\=\=\=\=\=\=\=\=\=\=\=\=\=\=\=\=\=\=\=\=\=\=\=\=\=\=\=\=\=\=\=\=\=\=\=\=\=\=\=\=
   ENCUT = 400
   PREC = Normal
   EDIFF = 2E-04
   GGA = PE
   ISMEAR = 1
   SIGMA = 0.2
   LREAL = .FALSE.
    = \=\=\=\=\=\=\=\=\=\=\=\=\=\=\=\=\=\=\=\=\=\=\=\=\=\=\=\=\=\=\=\=\=\=\=\=\=\=\=\=\=\=\=\=\=\=\=\=\=\=\=\=\=\=\=\=\=\=\=\=\=\=\=\=\=\=\=\=\=\=\=\=
    = \=\=\=\=\=\=\=\=\=\=\=\=\=\=\=\=\=\=\=\=\=\=\=\=\=\=\=\=\=\=\=\=\=\=\=\=\=\=\=\=\=\=\=\=\=\=\=\=\=\=\=\=\=\=\=\=\=\=\=\=\=\=\=\=\=\=\=\=\=\=\=\=
   ISYM = 1
   NSW = 800
   IBRION = 2
   POTIM = 0.5
   ISIF = 2
   EDIFFG = -.03
    = \=\=\=\=\=\=\=\=\=\=\=\=\=\=\=\=\=\=\=\=\=\=\=\=\=\=\=\=\=\=\=\=\=\=\=\=\=\=\=\=\=\=\=\=\=\=\=\=\=\=\=\=\=\=\=\=\=\=\=\=\=\=\=\=\=\=\=\=\=\=\=\=
    = \=\=\=\=\=\=\=\=\=\=\=\=\=\=\=\=\=\=\=\=\=\=\=\=\=\=\=\=\=\=\=\=\=\=\=\=\=\=\=\=\=\=\=\=\=\=\=\=\=\=\=\=\=\=\=\=\=\=\=\=\=\=\=\=\=\=\=\=\=\=\=\=
   NPAR = 4
   LWAVE = .FALSE.
   LCHARG = .FALSE.

 POTCAR:    PAW_PBE Cu 22Jun2005                  
 -----------------------------------------------------------------------------
|                                                                             |
|           W    W    AA    RRRRR   N    N  II  N    N   GGGG   !!!           |
|           W    W   A  A   R    R  NN   N  II  NN   N  G    G  !!!           |
|           W    W  A    A  R    R  N N  N  II  N N  N  G       !!!           |
|           W WW W  AAAAAA  RRRRR   N  N N  II  N  N N  G  GGG   !            |
|           WW  WW  A    A  R   R   N   NN  II  N   NN  G    G                |
|           W    W  A    A  R    R  N    N  II  N    N   GGGG   !!!           |
|                                                                             |
|     You use a magnetic or noncollinear calculation, but did not specify     |
|     the initial magnetic moment with the MAGMOM tag. Note that a            |
|     default of 1 will be used for all atoms. This ferromagnetic setup       |
|     may break the symmetry of the crystal, in particular it may rule        |
|     out finding an antiferromagnetic solution. Thence, we recommend         |
|     setting the initial magnetic moment manually or verifying carefully     |
|     that this magnetic setup is desired.                                    |
|                                                                             |
 -----------------------------------------------------------------------------

 POTCAR:    PAW_PBE Cu 22Jun2005                  
   SHA256 =  0e71e558f37a4e8407882b4609ceaae59938afaad9ced71dfe8490308a0ab630 Cu/POTCAR             
   COPYR  = (c) Copyright 22Jun2005 Georg Kresse                                                    
   COPYR  = This file is part of the software VASP. Any use, copying, and all other rights are regul
   COPYR  = If you do not have a valid VASP license, you may not use, copy or distribute this file. 
   VRHFIN =Cu: d10 p1                                                                               
   LEXCH  = PE                                                                                      
   EATOM  =  1390.9808 eV,  102.2342 Ry                                                             
                                                                                                    
   TITEL  = PAW_PBE Cu 22Jun2005                                                                    
   LULTRA =        F    use ultrasoft PP ?                                                          
   IUNSCR =        1    unscreen: 0-lin 1-nonlin 2-no                                               
   RPACOR =    2.000    partial core radius                                                         
   POMASS =   63.546; ZVAL   =   11.000    mass and valenz                                          
   RCORE  =    2.300    outmost cutoff radius                                                       
   RWIGS  =    2.200; RWIGS  =    1.164    wigner-seitz radius (au A)                               
   ENMAX  =  295.446; ENMIN  =  221.585 eV                                                          
   ICORE  =        3    local potential                                                             
   LCOR   =        T    correct aug charges                                                         
   LPAW   =        T    paw PP                                                                      
   EAUG   =  586.980                                                                                
   DEXC   =    0.000                                                                                
   RMAX   =    2.344    core radius for proj-oper                                                   
   RAUG   =    1.300    factor for augmentation sphere                                              
   RDEP   =    2.302    radius for radial grids                                                     
   RDEPT  =    1.771    core radius for aug-charge                                                  
                                                                                                    
   Atomic configuration                                                                             
    9 entries                                                                                       
     n  l   j            E        occ.                                                              
     1  0  0.50     -8850.2468   2.0000                                                             
     2  0  0.50     -1062.3498   2.0000                                                             
     2  1  1.50      -916.8226   6.0000                                                             
     3  0  0.50      -114.6929   2.0000                                                             
     3  1  1.50       -72.1325   6.0000                                                             
     3  2  2.50        -5.0394  10.0000                                                             
     4  0  0.50        -4.6097   1.0000                                                             
     4  1  0.50        -4.0817   0.0000                                                             
     4  3  2.50        -1.3606   0.0000                                                             
   Description                                                                                      
     l       E           TYP  RCUT    TYP  RCUT                                                     
     2     -5.0393973     23  2.200                                                                 
     2     10.8846608     23  2.200                                                                 
     0     -4.6097109     23  2.200                                                                 
     0      8.2520465     23  2.200                                                                 
     1     -2.7211652     23  2.200                                                                 
     1     21.7055443     23  2.200                                                                 
     3      2.7211652     23  2.300                                                                 
  local pseudopotential read in
  partial core-charges read in
  partial kinetic energy density read in
  atomic valenz-charges read in
  non local Contribution for L=           2  read in
    real space projection operators read in
  non local Contribution for L=           2  read in
    real space projection operators read in
  non local Contribution for L=           0  read in
    real space projection operators read in
  non local Contribution for L=           0  read in
    real space projection operators read in
  non local Contribution for L=           1  read in
    real space projection operators read in
  non local Contribution for L=           1  read in
    real space projection operators read in
    PAW grid and wavefunctions read in
 
   number of l-projection  operators is LMAX  =           6
   number of lm-projection operators is LMMAX =          18
 
  PAW_PBE Cu 22Jun2005                  :
 energy of atom  1       EATOM=-1390.9808
 kinetic energy error for atom=    0.0232 (will be added to EATOM!!)
 
 
 POSCAR: FCC Cu
  positions in cartesian coordinates
  velocities in cartesian coordinates
  No initial velocities read in
 exchange correlation table for  LEXCH =        8
   RHO(1)=    0.500       N(1)  =     2000
   RHO(2)=  100.500       N(2)  =     4000

 VTST: version 4.2, (08/11/21)

 CHAIN: initializing optimizer
 
 OPT: Using VASP Conjugate-Gradient optimizer
 CHAIN: Read ICHAIN            0
 
 POSCAR: FCC Cu
  positions in cartesian coordinates
  velocities in cartesian coordinates
  No initial velocities read in
 


--------------------------------------------------------------------------------------------------------


 ion  position               nearest neighbor table
   1  0.000  0.000  0.000-   2 2.57   2 2.57   2 2.57
   2  0.333  0.333  0.076-   3 2.57   1 2.57   1 2.57   3 2.57   1 2.57   3 2.57
   3  0.667  0.667  0.152-   2 2.57   2 2.57   2 2.57   4 2.57   4 2.57   4 2.57
   4  0.000  0.000  0.228-   5 2.57   5 2.57   5 2.57   3 2.57   3 2.57   3 2.57
   5  0.333  0.333  0.304-   6 2.57   6 2.57   6 2.57   4 2.57   4 2.57   4 2.57
   6  0.667  0.667  0.380-   5 2.57   5 2.57   5 2.57   7 2.57   7 2.57   7 2.57
   7  0.000  0.000  0.456-   6 2.57   6 2.57   6 2.57
 
  LATTYP: Found a hexagonal cell.
 ALAT       =     2.5667977333
 C/A-ratio  =    10.7428368321
  
  Lattice vectors:
  
 A1 = (  -1.2833988667,  -2.2229120434,   0.0000000000)
 A2 = (   2.5667977333,   0.0000000000,   0.0000000000)
 A3 = (   0.0000000000,   0.0000000000,  27.5746892300)


Analysis of symmetry for initial positions (statically):
=====================================================================
 Subroutine PRICEL returns:
 Original cell was already a primitive cell.
 

 Routine SETGRP: Setting up the symmetry group for a 
 hexagonal supercell.


 Subroutine GETGRP returns: Found 12 space group operations
 (whereof  6 operations were pure point group operations)
 out of a pool of 24 trial point group operations.


The static configuration has the point symmetry C_3v.
 The point group associated with its full space group is D_3d.


Analysis of symmetry for dynamics (positions and initial velocities):
=====================================================================
 Subroutine PRICEL returns:
 Original cell was already a primitive cell.
 

 Routine SETGRP: Setting up the symmetry group for a 
 hexagonal supercell.


 Subroutine GETGRP returns: Found 12 space group operations
 (whereof  6 operations were pure point group operations)
 out of a pool of 24 trial point group operations.


The dynamic configuration has the point symmetry C_3v.
 The point group associated with its full space group is D_3d.


Analysis of constrained symmetry for selective dynamics:
=====================================================================
 Subroutine PRICEL returns:
 Original cell was already a primitive cell.
 

 Routine SETGRP: Setting up the symmetry group for a 
 hexagonal supercell.


 Subroutine GETGRP returns: Found  6 space group operations
 (whereof  6 operations were pure point group operations)
 out of a pool of 24 trial point group operations.


The constrained configuration has the point symmetry C_3v.


Analysis of structural, dynamic, and magnetic symmetry:
=====================================================================
 Subroutine PRICEL returns:
 Original cell was already a primitive cell.
 

 Routine SETGRP: Setting up the symmetry group for a 
 hexagonal supercell.


 Subroutine GETGRP returns: Found  6 space group operations
 (whereof  6 operations were pure point group operations)
 out of a pool of 24 trial point group operations.


The overall configuration has the point symmetry C_3v.


 Subroutine INISYM returns: Found  6 space group operations
 (whereof  6 operations are pure point group operations),
 and found     1 'primitive' translations


----------------------------------------------------------------------------------------

                                     Primitive cell                                     

  volume of cell :     157.3347

  direct lattice vectors                    reciprocal lattice vectors
     2.566797733  0.000000000  0.000000000     0.389590495 -0.224930177  0.000000000
     1.283398867  2.222912043  0.000000000     0.000000000  0.449860355  0.000000000
     0.000000000  0.000000000 27.574689230     0.000000000  0.000000000  0.036265141

  length of vectors
     2.566797733  2.566797733 27.574689230     0.449860355  0.449860355  0.036265141

  position of ions in fractional coordinates (direct lattice)
     0.000000000  0.000000000  0.000000000
     0.333333333  0.333333333  0.076003814
     0.666666667  0.666666667  0.152007627
     0.000000000  0.000000000  0.228011441
     0.333333333  0.333333333  0.304015254
     0.666666667  0.666666667  0.380019068
     0.000000000  0.000000000  0.456022881

  ion indices of the primitive-cell ions
   primitive index   ion index
                 1           1
                 2           2
                 3           3
                 4           4
                 5           5
                 6           6
                 7           7

----------------------------------------------------------------------------------------

 
 
 KPOINTS: Auto-mesh                               

Automatic generation of k-mesh.
 Grid dimensions read from file:
 generate k-points for:    3    3    1

 Generating k-lattice:

  Cartesian coordinates                     Fractional coordinates (reciprocal lattice)
     0.129863498 -0.074976726  0.000000000     0.333333333  0.000000000  0.000000000
     0.000000000  0.149953452  0.000000000     0.000000000  0.333333333  0.000000000
     0.000000000  0.000000000  0.036265141     0.000000000  0.000000000  1.000000000

  Length of vectors
     0.149953452  0.149953452  0.036265141

  Shift w.r.t. Gamma in fractional coordinates (k-lattice)
     0.000000000  0.000000000  0.000000000

 
 Subroutine IBZKPT returns following result:
 ===========================================
 
 Found      3 irreducible k-points:
 
 Following reciprocal coordinates:
            Coordinates               Weight
  0.000000  0.000000  0.000000      1.000000
  0.333333  0.000000  0.000000      6.000000
 -0.333333  0.333333  0.000000      2.000000
 
 Following cartesian coordinates:
            Coordinates               Weight
  0.000000  0.000000  0.000000      1.000000
  0.129863 -0.074977  0.000000      6.000000
 -0.129863  0.224930  0.000000      2.000000
 


--------------------------------------------------------------------------------------------------------




 Dimension of arrays:
   k-points           NKPTS =      3   k-points in BZ     NKDIM =      3   number of bands    NBANDS=     52
   number of dos      NEDOS =    301   number of ions     NIONS =      7
   non local maximal  LDIM  =      6   non local SUM 2l+1 LMDIM =     18
   total plane-waves  NPLWV =  27440
   max r-space proj   IRMAX =      1   max aug-charges    IRDMAX=   5251
   dimension x,y,z NGX =    14 NGY =   14 NGZ =  140
   dimension x,y,z NGXF=    28 NGYF=   28 NGZF=  280
   support grid    NGXF=    28 NGYF=   28 NGZF=  280
   ions per type =               7
   NGX,Y,Z   is equivalent  to a cutoff of   9.07,  9.07,  8.44 a.u.
   NGXF,Y,Z  is equivalent  to a cutoff of  18.13, 18.13, 16.88 a.u.

 SYSTEM =  unknown system                          
 POSCAR =  FCC Cu                                  

 Startparameter for this run:
   NWRITE =      2    write-flag & timer
   PREC   = normal    normal or accurate (medium, high low for compatibility)
   ISTART =      0    job   : 0-new  1-cont  2-samecut
   ICHARG =      2    charge: 1-file 2-atom 10-const
   ISPIN  =      2    spin polarized calculation?
   LNONCOLLINEAR =      F non collinear calculations
   LSORBIT =      F    spin-orbit coupling
   INIWAV =      1    electr: 0-lowe 1-rand  2-diag
   LASPH  =      F    aspherical Exc in radial PAW
 Electronic Relaxation 1
   ENCUT  =  400.0 eV  29.40 Ry    5.42 a.u.   4.19  4.19 44.97*2*pi/ulx,y,z
   ENINI  =  400.0     initial cutoff
   ENAUG  =  587.0 eV  augmentation charge cutoff
   NELM   =     60;   NELMIN=  2; NELMDL= -5     # of ELM steps 
   EDIFF  = 0.2E-03   stopping-criterion for ELM
   LREAL  =      F    real-space projection
   NLSPLINE    = F    spline interpolate recip. space projectors
   LCOMPAT=      F    compatible to vasp.4.4
   GGA_COMPAT  = T    GGA compatible to vasp.4.4-vasp.4.6
   LMAXPAW     = -100 max onsite density
   LMAXMIX     =    2 max onsite mixed and CHGCAR
   VOSKOWN=      0    Vosko Wilk Nusair interpolation
   ROPT   =    0.00000
 Ionic relaxation
   EDIFFG = -.3E-01   stopping-criterion for IOM
   NSW    =    800    number of steps for IOM
   NBLOCK =      1;   KBLOCK =    800    inner block; outer block 
   IBRION =      2    ionic relax: 0-MD 1-quasi-New 2-CG
   NFREE  =      1    steps in history (QN), initial steepest desc. (CG)
   ISIF   =      2    stress and relaxation
   IWAVPR =     11    prediction:  0-non 1-charg 2-wave 3-comb
   ISYM   =      1    0-nonsym 1-usesym 2-fastsym
   LCORR  =      T    Harris-Foulkes like correction to forces

   POTIM  = 0.5000    time-step for ionic-motion
   TEIN   =    0.0    initial temperature
   TEBEG  =    0.0;   TEEND  =   0.0 temperature during run
   SMASS  =  -3.00    Nose mass-parameter (am)
   estimated Nose-frequenzy (Omega)   =  0.10E-29 period in steps = 0.13E+47 mass=  -0.151E-27a.u.
   SCALEE = 1.0000    scale energy and forces
   NPACO  =    256;   APACO  = 10.0  distance and # of slots for P.C.
   PSTRESS=    0.0 pullay stress

  Mass of Ions in am
   POMASS =  63.55
  Ionic Valenz
   ZVAL   =  11.00
  Atomic Wigner-Seitz radii
   RWIGS  =  -1.00
  virtual crystal weights 
   VCA    =   1.00
   NELECT =      77.0000    total number of electrons
   NUPDOWN=      -1.0000    fix difference up-down

 DOS related values:
   EMIN   =  10.00;   EMAX   =-10.00  energy-range for DOS
   EFERMI =   0.00
   ISMEAR =     1;   SIGMA  =   0.20  broadening in eV -4-tet -1-fermi 0-gaus

 Electronic relaxation 2 (details)
   IALGO  =     38    algorithm
   LDIAG  =      T    sub-space diagonalisation (order eigenvalues)
   LSUBROT=      F    optimize rotation matrix (better conditioning)
   TURBO    =      0    0=normal 1=particle mesh
   IRESTART =      0    0=no restart 2=restart with 2 vectors
   NREBOOT  =      0    no. of reboots
   NMIN     =      0    reboot dimension
   EREF     =   0.00    reference energy to select bands
   IMIX   =      4    mixing-type and parameters
     AMIX     =   0.40;   BMIX     =  1.00
     AMIX_MAG =   1.60;   BMIX_MAG =  1.00
     AMIN     =   0.10
     WC   =   100.;   INIMIX=   1;  MIXPRE=   1;  MAXMIX= -45

 Intra band minimization:
   WEIMIN = 0.0010     energy-eigenvalue tresh-hold
   EBREAK =  0.96E-06  absolut break condition
   DEPER  =   0.30     relativ break condition  

   TIME   =   0.40     timestep for ELM

  volume/ion in A,a.u.               =      22.48       151.68
  Fermi-wavevector in a.u.,A,eV,Ry     =   1.290120  2.437974 22.645679  1.664410
  Thomas-Fermi vector in A             =   2.421971
 
 Write flags
   LWAVE        =      F    write WAVECAR
   LDOWNSAMPLE  =      F    k-point downsampling of WAVECAR
   LCHARG       =      F    write CHGCAR
   LVTOT        =      F    write LOCPOT, total local potential
   LVHAR        =      F    write LOCPOT, Hartree potential only
   LELF         =      F    write electronic localiz. function (ELF)
   LORBIT       =      0    0 simple, 1 ext, 2 COOP (PROOUT), +10 PAW based schemes


 Dipole corrections
   LMONO  =      F    monopole corrections only (constant potential shift)
   LDIPOL =      F    correct potential (dipole corrections)
   IDIPOL =      3    1-x, 2-y, 3-z, 4-all directions 
   EPSILON=  1.0000000 bulk dielectric constant

 Exchange correlation treatment:
   GGA     =    PE    GGA type
   LEXCH   =     8    internal setting for exchange type
   LIBXC   =     F    Libxc                    
   VOSKOWN =     0    Vosko Wilk Nusair interpolation
   LHFCALC =     F    Hartree Fock is set to
   LHFONE  =     F    Hartree Fock one center treatment
   AEXX    =    0.0000 exact exchange contribution

 Linear response parameters
   LEPSILON=     F    determine dielectric tensor
   LRPA    =     F    only Hartree local field effects (RPA)
   LNABLA  =     F    use nabla operator in PAW spheres
   LVEL    =     F    velocity operator in full k-point grid
   CSHIFT  =0.1000    complex shift for real part using Kramers Kronig
   OMEGAMAX=  -1.0    maximum frequency
   DEG_THRESHOLD= 0.2000000E-02 threshold for treating states as degnerate
   RTIME   =   -0.100 relaxation time in fs
  (WPLASMAI=    0.000 imaginary part of plasma frequency in eV, 0.658/RTIME)
   DFIELD  = 0.0000000 0.0000000 0.0000000 field for delta impulse in time
 
  Optional k-point grid parameters
   LKPOINTS_OPT  =     F    use optional k-point grid
   KPOINTS_OPT_MODE=     1    mode for optional k-point grid
 
 Orbital magnetization related:
   ORBITALMAG=     F  switch on orbital magnetization
   LCHIMAG   =     F  perturbation theory with respect to B field
   DQ        =  0.001000  dq finite difference perturbation B field
   LLRAUG    =     F  two centre corrections for induced B field



--------------------------------------------------------------------------------------------------------


 conjugate gradient relaxation of ions
   using selective dynamics as specified on POSCAR
   WARNING: If single coordinates had been selected the selection of coordinates
            is made according to the corresponding   d i r e c t   coordinates!
            Don't support selection of single cartesian coordinates -- sorry ...
  !
 charge density and potential will be updated during run
 spin polarized calculation
 Variant of blocked Davidson
 Davidson routine will perform the subspace rotation
 perform sub-space diagonalisation
    after iterative eigenvector-optimisation
 modified Broyden-mixing scheme, WC =      100.0
 initial mixing is a Kerker type mixing with AMIX =  0.4000 and BMIX =      1.0000
 Hartree-type preconditioning will be used
 using additional bands           13
 reciprocal scheme for non local part
 use partial core corrections
 calculate Harris-corrections to forces 
   (improved forces if not selfconsistent)
 use gradient corrections 
 use of overlap-Matrix (Vanderbilt PP)
 Methfessel and Paxton  Order N= 1 SIGMA  =   0.20


--------------------------------------------------------------------------------------------------------


  energy-cutoff  :      400.00
  volume of cell :      157.33
      direct lattice vectors                 reciprocal lattice vectors
     2.566797733  0.000000000  0.000000000     0.389590495 -0.224930177  0.000000000
     1.283398867  2.222912043  0.000000000     0.000000000  0.449860355  0.000000000
     0.000000000  0.000000000 27.574689230     0.000000000  0.000000000  0.036265141

  length of vectors
     2.566797733  2.566797733 27.574689230     0.449860355  0.449860355  0.036265141


 
 k-points in units of 2pi/SCALE and weight: Auto-mesh                               
   0.00000000  0.00000000  0.00000000       0.111
   0.12986350 -0.07497673  0.00000000       0.667
  -0.12986350  0.22493018  0.00000000       0.222
 
 k-points in reciprocal lattice and weights: Auto-mesh                               
   0.00000000  0.00000000  0.00000000       0.111
   0.33333333  0.00000000  0.00000000       0.667
  -0.33333333  0.33333333  0.00000000       0.222
 
 position of ions in fractional coordinates (direct lattice) 
   0.00000000  0.00000000  0.00000000
   0.33333333  0.33333333  0.07600381
   0.66666667  0.66666667  0.15200763
   0.00000000  0.00000000  0.22801144
   0.33333333  0.33333333  0.30401525
   0.66666667  0.66666667  0.38001907
   0.00000000  0.00000000  0.45602288
 
 position of ions in cartesian coordinates  (Angst):
   0.00000000  0.00000000  0.00000000
   1.28339887  0.74097068  2.09578154
   2.56679773  1.48194136  4.19156308
   0.00000000  0.00000000  6.28734461
   1.28339887  0.74097068  8.38312615
   2.56679773  1.48194136 10.47890769
   0.00000000  0.00000000 12.57468923
 


--------------------------------------------------------------------------------------------------------


 k-point   1 :   0.0000 0.0000 0.0000  plane waves:    2843
 k-point   2 :   0.3333 0.0000 0.0000  plane waves:    2861
 k-point   3 :  -0.3333 0.3333 0.0000  plane waves:    2886

 maximum and minimum number of plane-waves per node :       580      553

 maximum number of plane-waves:      2886
 maximum index in each direction: 
   IXMAX=    4   IYMAX=    4   IZMAX=   44
   IXMIN=   -4   IYMIN=   -4   IZMIN=  -44


 parallel 3D FFT for wavefunctions:
    minimum data exchange during FFTs selected (reduces bandwidth)
 parallel 3D FFT for charge:
    minimum data exchange during FFTs selected (reduces bandwidth)


 total amount of memory used by VASP MPI-rank0    33417. kBytes
=======================================================================

   base      :      30000. kBytes
   nonl-proj :        315. kBytes
   fftplans  :        666. kBytes
   grid      :       1606. kBytes
   one-center:         62. kBytes
   wavefun   :        768. kBytes
 
     INWAV:  cpu time      0.0000: real time      0.0004
 Broyden mixing: mesh for mixing (old mesh)
   NGX =  9   NGY =  9   NGZ = 89
  (NGX  = 28   NGY  = 28   NGZ  =280)
  gives a total of   7209 points

 initial charge density was supplied:
 charge density of overlapping atoms calculated
 number of electron      77.0000000 magnetization       7.0000000
 keeping initial charge density in first step


--------------------------------------------------------------------------------------------------------


 Maximum index for augmentation-charges          488 (set IRDMAX)


--------------------------------------------------------------------------------------------------------


 First call to EWALD:  gamma=   0.328
 Maximum number of real-space cells 6x 6x 1
 Maximum number of reciprocal cells 2x 2x12

    FEWALD:  cpu time      0.0019: real time      0.0019


--------------------------------------- Iteration      1(   1)  ---------------------------------------


    POTLOK:  cpu time      0.0208: real time      0.0213
    SETDIJ:  cpu time      0.0069: real time      0.0070
     EDDAV:  cpu time      0.1715: real time      0.1731
       DOS:  cpu time      0.0014: real time      0.0014
    --------------------------------------------
      LOOP:  cpu time      0.2007: real time      0.2029

 eigenvalue-minimisations  :   624
 total energy-change (2. order) : 0.6570117E+03  (-0.2884664E+04)
 number of electron      77.0000000 magnetization       7.0000000
 augmentation part       77.0000000 magnetization       7.0000000

 Free energy of the ion-electron system (eV)
  ---------------------------------------------------
  alpha Z        PSCENC =       227.76330227
  Ewald energy   TEWEN  =     40713.06922123
  -Hartree energ DENC   =    -50292.17888275
  -exchange      EXHF   =         0.00000000
  -V(xc)+E(xc)   XCENC  =       320.08129815
  PAW double counting   =      8596.68247234    -9337.44652067
  entropy T*S    EENTRO =        -0.00014895
  eigenvalues    EBANDS =       692.33745055
  atomic energy  EATOM  =      9736.70348140
  Solvation  Ediel_sol  =         0.00000000
  ---------------------------------------------------
  free energy    TOTEN  =       657.01167357 eV

  energy without entropy =      657.01182252  energy(sigma->0) =      657.01172322


--------------------------------------------------------------------------------------------------------




--------------------------------------- Iteration      1(   2)  ---------------------------------------


     EDDAV:  cpu time      0.1627: real time      0.1645
       DOS:  cpu time      0.0007: real time      0.0007
    --------------------------------------------
      LOOP:  cpu time      0.1634: real time      0.1652

 eigenvalue-minimisations  :   624
 total energy-change (2. order) :-0.6095440E+03  (-0.5823987E+03)
 number of electron      77.0000000 magnetization       7.0000000
 augmentation part       77.0000000 magnetization       7.0000000

 Free energy of the ion-electron system (eV)
  ---------------------------------------------------
  alpha Z        PSCENC =       227.76330227
  Ewald energy   TEWEN  =     40713.06922123
  -Hartree energ DENC   =    -50292.17888275
  -exchange      EXHF   =         0.00000000
  -V(xc)+E(xc)   XCENC  =       320.08129815
  PAW double counting   =      8596.68247234    -9337.44652067
  entropy T*S    EENTRO =        -0.00318287
  eigenvalues    EBANDS =        82.79648772
  atomic energy  EATOM  =      9736.70348140
  Solvation  Ediel_sol  =         0.00000000
  ---------------------------------------------------
  free energy    TOTEN  =        47.46767682 eV

  energy without entropy =       47.47085968  energy(sigma->0) =       47.46873777


--------------------------------------------------------------------------------------------------------




--------------------------------------- Iteration      1(   3)  ---------------------------------------


     EDDAV:  cpu time      0.1640: real time      0.1654
       DOS:  cpu time      0.0008: real time      0.0008
    --------------------------------------------
      LOOP:  cpu time      0.1647: real time      0.1662

 eigenvalue-minimisations  :   640
 total energy-change (2. order) :-0.7573585E+02  (-0.7057500E+02)
 number of electron      77.0000000 magnetization       7.0000000
 augmentation part       77.0000000 magnetization       7.0000000

 Free energy of the ion-electron system (eV)
  ---------------------------------------------------
  alpha Z        PSCENC =       227.76330227
  Ewald energy   TEWEN  =     40713.06922123
  -Hartree energ DENC   =    -50292.17888275
  -exchange      EXHF   =         0.00000000
  -V(xc)+E(xc)   XCENC  =       320.08129815
  PAW double counting   =      8596.68247234    -9337.44652067
  entropy T*S    EENTRO =        -0.02228223
  eigenvalues    EBANDS =         7.07973651
  atomic energy  EATOM  =      9736.70348140
  Solvation  Ediel_sol  =         0.00000000
  ---------------------------------------------------
  free energy    TOTEN  =       -28.26817375 eV

  energy without entropy =      -28.24589152  energy(sigma->0) =      -28.26074634


--------------------------------------------------------------------------------------------------------




--------------------------------------- Iteration      1(   4)  ---------------------------------------


     EDDAV:  cpu time      0.1737: real time      0.1753
       DOS:  cpu time      0.0008: real time      0.0008
    --------------------------------------------
      LOOP:  cpu time      0.1746: real time      0.1761

 eigenvalue-minimisations  :   692
 total energy-change (2. order) :-0.2969363E+01  (-0.2946738E+01)
 number of electron      77.0000000 magnetization       7.0000000
 augmentation part       77.0000000 magnetization       7.0000000

 Free energy of the ion-electron system (eV)
  ---------------------------------------------------
  alpha Z        PSCENC =       227.76330227
  Ewald energy   TEWEN  =     40713.06922123
  -Hartree energ DENC   =    -50292.17888275
  -exchange      EXHF   =         0.00000000
  -V(xc)+E(xc)   XCENC  =       320.08129815
  PAW double counting   =      8596.68247234    -9337.44652067
  entropy T*S    EENTRO =        -0.02207277
  eigenvalues    EBANDS =         4.11016452
  atomic energy  EATOM  =      9736.70348140
  Solvation  Ediel_sol  =         0.00000000
  ---------------------------------------------------
  free energy    TOTEN  =       -31.23753629 eV

  energy without entropy =      -31.21546352  energy(sigma->0) =      -31.23017870


--------------------------------------------------------------------------------------------------------




--------------------------------------- Iteration      1(   5)  ---------------------------------------


     EDDAV:  cpu time      0.1741: real time      0.1766
       DOS:  cpu time      0.0008: real time      0.0008
    CHARGE:  cpu time      0.0496: real time      0.0498
    MIXING:  cpu time      0.0005: real time      0.0005
    --------------------------------------------
      LOOP:  cpu time      0.2250: real time      0.2277

 eigenvalue-minimisations  :   696
 total energy-change (2. order) :-0.6027936E-01  (-0.6024985E-01)
 number of electron      77.0000005 magnetization       6.5524432
 augmentation part       45.4080623 magnetization       6.5197909

 Broyden mixing:
  rms(total) = 0.24486E+01    rms(broyden)= 0.24485E+01
  rms(prec ) = 0.25135E+01
  weight for this iteration     100.00

 Free energy of the ion-electron system (eV)
  ---------------------------------------------------
  alpha Z        PSCENC =       227.76330227
  Ewald energy   TEWEN  =     40713.06922123
  -Hartree energ DENC   =    -50292.17888275
  -exchange      EXHF   =         0.00000000
  -V(xc)+E(xc)   XCENC  =       320.08129815
  PAW double counting   =      8596.68247234    -9337.44652067
  entropy T*S    EENTRO =        -0.02201200
  eigenvalues    EBANDS =         4.04982438
  atomic energy  EATOM  =      9736.70348140
  Solvation  Ediel_sol  =         0.00000000
  ---------------------------------------------------
  free energy    TOTEN  =       -31.29781565 eV

  energy without entropy =      -31.27580365  energy(sigma->0) =      -31.29047832


--------------------------------------------------------------------------------------------------------




--------------------------------------- Iteration      1(   6)  ---------------------------------------


    POTLOK:  cpu time      0.0184: real time      0.0187
    SETDIJ:  cpu time      0.0070: real time      0.0070
     EDDAV:  cpu time      0.1721: real time      0.1739
       DOS:  cpu time      0.0009: real time      0.0009
    CHARGE:  cpu time      0.0474: real time      0.0477
    MIXING:  cpu time      0.0007: real time      0.0007
    --------------------------------------------
      LOOP:  cpu time      0.2465: real time      0.2489

 eigenvalue-minimisations  :   688
 total energy-change (2. order) : 0.4241279E+01  (-0.6673983E+01)
 number of electron      77.0000008 magnetization       6.2188251
 augmentation part       51.5187348 magnetization       5.3578666

 Broyden mixing:
  rms(total) = 0.13583E+01    rms(broyden)= 0.13581E+01
  rms(prec ) = 0.14041E+01
  weight for this iteration     100.00

 eigenvalues of (default mixing * dielectric matrix)
  average eigenvalue GAMMA=   0.7829
  0.7829

 Free energy of the ion-electron system (eV)
  ---------------------------------------------------
  alpha Z        PSCENC =       227.76330227
  Ewald energy   TEWEN  =     40713.06922123
  -Hartree energ DENC   =    -50077.29279015
  -exchange      EXHF   =         0.00000000
  -V(xc)+E(xc)   XCENC  =       311.16157721
  PAW double counting   =      8690.97231189    -9392.16463790
  entropy T*S    EENTRO =        -0.01415181
  eigenvalues    EBANDS =      -237.25485104
  atomic energy  EATOM  =      9736.70348140
  Solvation  Ediel_sol  =         0.00000000
  ---------------------------------------------------
  free energy    TOTEN  =       -27.05653690 eV

  energy without entropy =      -27.04238509  energy(sigma->0) =      -27.05181963


--------------------------------------------------------------------------------------------------------




--------------------------------------- Iteration      1(   7)  ---------------------------------------


    POTLOK:  cpu time      0.0178: real time      0.0181
    SETDIJ:  cpu time      0.0057: real time      0.0058
     EDDAV:  cpu time      0.1822: real time      0.1836
       DOS:  cpu time      0.0007: real time      0.0007
    CHARGE:  cpu time      0.0492: real time      0.0495
    MIXING:  cpu time      0.0009: real time      0.0009
    --------------------------------------------
      LOOP:  cpu time      0.2567: real time      0.2585

 eigenvalue-minimisations  :   680
 total energy-change (2. order) : 0.4152545E+01  (-0.1512267E+01)
 number of electron      77.0000006 magnetization       5.7625545
 augmentation part       49.2695983 magnetization       4.5484893

 Broyden mixing:
  rms(total) = 0.68833E+00    rms(broyden)= 0.68826E+00
  rms(prec ) = 0.70075E+00
  weight for this iteration     100.00

 eigenvalues of (default mixing * dielectric matrix)
  average eigenvalue GAMMA=   0.9535
  1.2649  0.6420

 Free energy of the ion-electron system (eV)
  ---------------------------------------------------
  alpha Z        PSCENC =       227.76330227
  Ewald energy   TEWEN  =     40713.06922123
  -Hartree energ DENC   =    -50192.11006730
  -exchange      EXHF   =         0.00000000
  -V(xc)+E(xc)   XCENC  =       315.48825648
  PAW double counting   =      8874.95194186    -9612.18363736
  entropy T*S    EENTRO =        -0.00803555
  eigenvalues    EBANDS =       -86.57845509
  atomic energy  EATOM  =      9736.70348140
  Solvation  Ediel_sol  =         0.00000000
  ---------------------------------------------------
  free energy    TOTEN  =       -22.90399205 eV

  energy without entropy =      -22.89595651  energy(sigma->0) =      -22.90131354


--------------------------------------------------------------------------------------------------------




--------------------------------------- Iteration      1(   8)  ---------------------------------------


    POTLOK:  cpu time      0.0189: real time      0.0192
    SETDIJ:  cpu time      0.0059: real time      0.0059
     EDDAV:  cpu time      0.1828: real time      0.1842
       DOS:  cpu time      0.0007: real time      0.0007
    CHARGE:  cpu time      0.0453: real time      0.0455
    MIXING:  cpu time      0.0007: real time      0.0007
    --------------------------------------------
      LOOP:  cpu time      0.2543: real time      0.2562

 eigenvalue-minimisations  :   740
 total energy-change (2. order) : 0.7804834E+00  (-0.4922622E+00)
 number of electron      77.0000015 magnetization       5.4644629
 augmentation part       48.9812232 magnetization       3.9620701

 Broyden mixing:
  rms(total) = 0.69766E+00    rms(broyden)= 0.69750E+00
  rms(prec ) = 0.74366E+00
  weight for this iteration     100.00

 eigenvalues of (default mixing * dielectric matrix)
  average eigenvalue GAMMA=   0.7297
  1.2012  0.6290  0.3590

 Free energy of the ion-electron system (eV)
  ---------------------------------------------------
  alpha Z        PSCENC =       227.76330227
  Ewald energy   TEWEN  =     40713.06922123
  -Hartree energ DENC   =    -50177.81226296
  -exchange      EXHF   =         0.00000000
  -V(xc)+E(xc)   XCENC  =       316.19493147
  PAW double counting   =      9002.12729178    -9748.83070084
  entropy T*S    EENTRO =        -0.00766681
  eigenvalues    EBANDS =       -91.33110621
  atomic energy  EATOM  =      9736.70348140
  Solvation  Ediel_sol  =         0.00000000
  ---------------------------------------------------
  free energy    TOTEN  =       -22.12350868 eV

  energy without entropy =      -22.11584187  energy(sigma->0) =      -22.12095308


--------------------------------------------------------------------------------------------------------




--------------------------------------- Iteration      1(   9)  ---------------------------------------


    POTLOK:  cpu time      0.0178: real time      0.0181
    SETDIJ:  cpu time      0.0057: real time      0.0057
     EDDAV:  cpu time      0.2062: real time      0.2078
       DOS:  cpu time      0.0007: real time      0.0008
    CHARGE:  cpu time      0.0475: real time      0.0477
    MIXING:  cpu time      0.0007: real time      0.0007
    --------------------------------------------
      LOOP:  cpu time      0.2786: real time      0.2807

 eigenvalue-minimisations  :   864
 total energy-change (2. order) : 0.2322292E+00  (-0.1386651E+00)
 number of electron      77.0000007 magnetization       4.3710313
 augmentation part       49.0209807 magnetization       2.9777380

 Broyden mixing:
  rms(total) = 0.53890E+00    rms(broyden)= 0.53880E+00
  rms(prec ) = 0.54183E+00
  weight for this iteration     100.00

 eigenvalues of (default mixing * dielectric matrix)
  average eigenvalue GAMMA=   0.8505
  1.1747  1.1747  0.7084  0.3443

 Free energy of the ion-electron system (eV)
  ---------------------------------------------------
  alpha Z        PSCENC =       227.76330227
  Ewald energy   TEWEN  =     40713.06922123
  -Hartree energ DENC   =    -50200.59314558
  -exchange      EXHF   =         0.00000000
  -V(xc)+E(xc)   XCENC  =       315.93656242
  PAW double counting   =      9063.94911501    -9813.92550439
  entropy T*S    EENTRO =        -0.02071368
  eigenvalues    EBANDS =       -64.77359818
  atomic energy  EATOM  =      9736.70348140
  Solvation  Ediel_sol  =         0.00000000
  ---------------------------------------------------
  free energy    TOTEN  =       -21.89127950 eV

  energy without entropy =      -21.87056582  energy(sigma->0) =      -21.88437494


--------------------------------------------------------------------------------------------------------




--------------------------------------- Iteration      1(  10)  ---------------------------------------


    POTLOK:  cpu time      0.0177: real time      0.0179
    SETDIJ:  cpu time      0.0056: real time      0.0057
     EDDAV:  cpu time      0.2190: real time      0.2212
       DOS:  cpu time      0.0007: real time      0.0007
    CHARGE:  cpu time      0.0452: real time      0.0454
    MIXING:  cpu time      0.0010: real time      0.0010
    --------------------------------------------
      LOOP:  cpu time      0.2893: real time      0.2920

 eigenvalue-minimisations  :   932
 total energy-change (2. order) :-0.6648683E+00  (-0.1561114E+00)
 number of electron      77.0000009 magnetization       2.5285857
 augmentation part       49.3732414 magnetization       1.4197393

 Broyden mixing:
  rms(total) = 0.50594E+00    rms(broyden)= 0.50593E+00
  rms(prec ) = 0.52198E+00
  weight for this iteration     100.00

 eigenvalues of (default mixing * dielectric matrix)
  average eigenvalue GAMMA=   1.2751
  3.6272  1.2635  0.6383  0.4986  0.3478

 Free energy of the ion-electron system (eV)
  ---------------------------------------------------
  alpha Z        PSCENC =       227.76330227
  Ewald energy   TEWEN  =     40713.06922123
  -Hartree energ DENC   =    -50190.88168824
  -exchange      EXHF   =         0.00000000
  -V(xc)+E(xc)   XCENC  =       314.61724396
  PAW double counting   =      9190.97025562    -9943.20910553
  entropy T*S    EENTRO =        -0.00455645
  eigenvalues    EBANDS =       -71.58430202
  atomic energy  EATOM  =      9736.70348140
  Solvation  Ediel_sol  =         0.00000000
  ---------------------------------------------------
  free energy    TOTEN  =       -22.55614776 eV

  energy without entropy =      -22.55159131  energy(sigma->0) =      -22.55462894


--------------------------------------------------------------------------------------------------------




--------------------------------------- Iteration      1(  11)  ---------------------------------------


    POTLOK:  cpu time      0.0176: real time      0.0179
    SETDIJ:  cpu time      0.0056: real time      0.0057
     EDDAV:  cpu time      0.2164: real time      0.2181
       DOS:  cpu time      0.0007: real time      0.0007
    CHARGE:  cpu time      0.0451: real time      0.0453
    MIXING:  cpu time      0.0008: real time      0.0008
    --------------------------------------------
      LOOP:  cpu time      0.2863: real time      0.2884

 eigenvalue-minimisations  :   916
 total energy-change (2. order) :-0.4807147E+00  (-0.2564307E+00)
 number of electron      77.0000007 magnetization       2.0935399
 augmentation part       49.6668584 magnetization       1.2609074

 Broyden mixing:
  rms(total) = 0.45858E+00    rms(broyden)= 0.45854E+00
  rms(prec ) = 0.50008E+00
  weight for this iteration     100.00

 eigenvalues of (default mixing * dielectric matrix)
  average eigenvalue GAMMA=   1.3010
  4.5290  1.2584  0.5789  0.5519  0.5519  0.3358

 Free energy of the ion-electron system (eV)
  ---------------------------------------------------
  alpha Z        PSCENC =       227.76330227
  Ewald energy   TEWEN  =     40713.06922123
  -Hartree energ DENC   =    -50207.27597017
  -exchange      EXHF   =         0.00000000
  -V(xc)+E(xc)   XCENC  =       313.57959899
  PAW double counting   =      9368.40891602   -10126.78626058
  entropy T*S    EENTRO =         0.00252077
  eigenvalues    EBANDS =       -48.50167243
  atomic energy  EATOM  =      9736.70348140
  Solvation  Ediel_sol  =         0.00000000
  ---------------------------------------------------
  free energy    TOTEN  =       -23.03686251 eV

  energy without entropy =      -23.03938328  energy(sigma->0) =      -23.03770276


--------------------------------------------------------------------------------------------------------




--------------------------------------- Iteration      1(  12)  ---------------------------------------


    POTLOK:  cpu time      0.0177: real time      0.0179
    SETDIJ:  cpu time      0.0057: real time      0.0057
     EDDAV:  cpu time      0.2101: real time      0.2118
       DOS:  cpu time      0.0007: real time      0.0008
    CHARGE:  cpu time      0.0461: real time      0.0463
    MIXING:  cpu time      0.0009: real time      0.0009
    --------------------------------------------
      LOOP:  cpu time      0.2812: real time      0.2834

 eigenvalue-minimisations  :   888
 total energy-change (2. order) :-0.1196965E+00  (-0.2069804E+00)
 number of electron      77.0000007 magnetization       1.5753237
 augmentation part       49.5755621 magnetization       0.8016774

 Broyden mixing:
  rms(total) = 0.36748E+00    rms(broyden)= 0.36745E+00
  rms(prec ) = 0.40067E+00
  weight for this iteration     100.00

 eigenvalues of (default mixing * dielectric matrix)
  average eigenvalue GAMMA=   1.4385
  5.9202  1.3302  0.7868  0.7868  0.5793  0.3332  0.3332

 Free energy of the ion-electron system (eV)
  ---------------------------------------------------
  alpha Z        PSCENC =       227.76330227
  Ewald energy   TEWEN  =     40713.06922123
  -Hartree energ DENC   =    -50219.80332684
  -exchange      EXHF   =         0.00000000
  -V(xc)+E(xc)   XCENC  =       313.67276815
  PAW double counting   =      9375.26841242   -10135.39690475
  entropy T*S    EENTRO =        -0.00097618
  eigenvalues    EBANDS =       -34.43253666
  atomic energy  EATOM  =      9736.70348140
  Solvation  Ediel_sol  =         0.00000000
  ---------------------------------------------------
  free energy    TOTEN  =       -23.15655896 eV

  energy without entropy =      -23.15558278  energy(sigma->0) =      -23.15623356


--------------------------------------------------------------------------------------------------------




--------------------------------------- Iteration      1(  13)  ---------------------------------------


    POTLOK:  cpu time      0.0176: real time      0.0178
    SETDIJ:  cpu time      0.0056: real time      0.0056
     EDDAV:  cpu time      0.2009: real time      0.2032
       DOS:  cpu time      0.0007: real time      0.0007
    CHARGE:  cpu time      0.0461: real time      0.0463
    MIXING:  cpu time      0.0009: real time      0.0009
    --------------------------------------------
      LOOP:  cpu time      0.2718: real time      0.2747

 eigenvalue-minimisations  :   844
 total energy-change (2. order) :-0.4319854E+00  (-0.1433150E+00)
 number of electron      77.0000007 magnetization       1.0167986
 augmentation part       49.2402849 magnetization       0.3048997

 Broyden mixing:
  rms(total) = 0.16445E+00    rms(broyden)= 0.16441E+00
  rms(prec ) = 0.19089E+00
  weight for this iteration     100.00

 eigenvalues of (default mixing * dielectric matrix)
  average eigenvalue GAMMA=   1.7801
  9.0660  1.5900  1.0960  0.6629  0.6629  0.5550  0.3409  0.2671

 Free energy of the ion-electron system (eV)
  ---------------------------------------------------
  alpha Z        PSCENC =       227.76330227
  Ewald energy   TEWEN  =     40713.06922123
  -Hartree energ DENC   =    -50236.21973954
  -exchange      EXHF   =         0.00000000
  -V(xc)+E(xc)   XCENC  =       313.99668797
  PAW double counting   =      9322.99745738   -10084.05263575
  entropy T*S    EENTRO =        -0.00779971
  eigenvalues    EBANDS =       -17.83851964
  atomic energy  EATOM  =      9736.70348140
  Solvation  Ediel_sol  =         0.00000000
  ---------------------------------------------------
  free energy    TOTEN  =       -23.58854438 eV

  energy without entropy =      -23.58074467  energy(sigma->0) =      -23.58594448


--------------------------------------------------------------------------------------------------------




--------------------------------------- Iteration      1(  14)  ---------------------------------------


    POTLOK:  cpu time      0.0175: real time      0.0178
    SETDIJ:  cpu time      0.0056: real time      0.0056
     EDDAV:  cpu time      0.1963: real time      0.1978
       DOS:  cpu time      0.0008: real time      0.0008
    CHARGE:  cpu time      0.0472: real time      0.0474
    MIXING:  cpu time      0.0010: real time      0.0010
    --------------------------------------------
      LOOP:  cpu time      0.2683: real time      0.2703

 eigenvalue-minimisations  :   820
 total energy-change (2. order) :-0.8230599E+00  (-0.8476066E-01)
 number of electron      77.0000008 magnetization       0.7569737
 augmentation part       49.0759924 magnetization       0.1726571

 Broyden mixing:
  rms(total) = 0.10184E+00    rms(broyden)= 0.10182E+00
  rms(prec ) = 0.10723E+00
  weight for this iteration     100.00

 eigenvalues of (default mixing * dielectric matrix)
  average eigenvalue GAMMA=   1.9278
 10.7753  2.1023  1.2361  0.7550  0.7550  0.6449  0.4739  0.3446  0.2635

 Free energy of the ion-electron system (eV)
  ---------------------------------------------------
  alpha Z        PSCENC =       227.76330227
  Ewald energy   TEWEN  =     40713.06922123
  -Hartree energ DENC   =    -50233.20952957
  -exchange      EXHF   =         0.00000000
  -V(xc)+E(xc)   XCENC  =       313.83831050
  PAW double counting   =      9236.58340209    -9994.85653429
  entropy T*S    EENTRO =        -0.00935881
  eigenvalues    EBANDS =       -24.29389910
  atomic energy  EATOM  =      9736.70348140
  Solvation  Ediel_sol  =         0.00000000
  ---------------------------------------------------
  free energy    TOTEN  =       -24.41160428 eV

  energy without entropy =      -24.40224548  energy(sigma->0) =      -24.40848468


--------------------------------------------------------------------------------------------------------




--------------------------------------- Iteration      1(  15)  ---------------------------------------


    POTLOK:  cpu time      0.0176: real time      0.0179
    SETDIJ:  cpu time      0.0056: real time      0.0056
     EDDAV:  cpu time      0.2010: real time      0.2026
       DOS:  cpu time      0.0007: real time      0.0008
    CHARGE:  cpu time      0.0468: real time      0.0470
    MIXING:  cpu time      0.0011: real time      0.0011
    --------------------------------------------
      LOOP:  cpu time      0.2729: real time      0.2750

 eigenvalue-minimisations  :   844
 total energy-change (2. order) :-0.6783919E+00  (-0.4811751E-01)
 number of electron      77.0000008 magnetization       0.7247474
 augmentation part       49.0776377 magnetization       0.2232574

 Broyden mixing:
  rms(total) = 0.91871E-01    rms(broyden)= 0.91853E-01
  rms(prec ) = 0.95709E-01
  weight for this iteration     100.00

 eigenvalues of (default mixing * dielectric matrix)
  average eigenvalue GAMMA=   1.8483
 11.0261  2.4557  1.1572  0.7969  0.7969  0.6158  0.5137  0.5137  0.3416  0.2651

 Free energy of the ion-electron system (eV)
  ---------------------------------------------------
  alpha Z        PSCENC =       227.76330227
  Ewald energy   TEWEN  =     40713.06922123
  -Hartree energ DENC   =    -50223.67396360
  -exchange      EXHF   =         0.00000000
  -V(xc)+E(xc)   XCENC  =       313.42192657
  PAW double counting   =      9177.35510388    -9932.33811798
  entropy T*S    EENTRO =        -0.00815850
  eigenvalues    EBANDS =       -37.38279144
  atomic energy  EATOM  =      9736.70348140
  Solvation  Ediel_sol  =         0.00000000
  ---------------------------------------------------
  free energy    TOTEN  =       -25.08999617 eV

  energy without entropy =      -25.08183767  energy(sigma->0) =      -25.08727667


--------------------------------------------------------------------------------------------------------




--------------------------------------- Iteration      1(  16)  ---------------------------------------


    POTLOK:  cpu time      0.0176: real time      0.0178
    SETDIJ:  cpu time      0.0056: real time      0.0056
     EDDAV:  cpu time      0.1877: real time      0.1891
       DOS:  cpu time      0.0007: real time      0.0007
    CHARGE:  cpu time      0.0475: real time      0.0477
    MIXING:  cpu time      0.0014: real time      0.0014
    --------------------------------------------
      LOOP:  cpu time      0.2605: real time      0.2623

 eigenvalue-minimisations  :   720
 total energy-change (2. order) :-0.3226977E+00  (-0.1972549E-01)
 number of electron      77.0000008 magnetization       0.7573565
 augmentation part       49.1167973 magnetization       0.2995862

 Broyden mixing:
  rms(total) = 0.60725E-01    rms(broyden)= 0.60700E-01
  rms(prec ) = 0.62563E-01
  weight for this iteration     100.00

 eigenvalues of (default mixing * dielectric matrix)
  average eigenvalue GAMMA=   1.7602
 10.9318  2.6365  1.0221  0.8647  0.8647  0.6985  0.6985  0.5702  0.4674  0.3432
  0.2650

 Free energy of the ion-electron system (eV)
  ---------------------------------------------------
  alpha Z        PSCENC =       227.76330227
  Ewald energy   TEWEN  =     40713.06922123
  -Hartree energ DENC   =    -50218.05142700
  -exchange      EXHF   =         0.00000000
  -V(xc)+E(xc)   XCENC  =       313.17565299
  PAW double counting   =      9151.34592152    -9904.42190982
  entropy T*S    EENTRO =        -0.00580728
  eigenvalues    EBANDS =       -44.99112921
  atomic energy  EATOM  =      9736.70348140
  Solvation  Ediel_sol  =         0.00000000
  ---------------------------------------------------
  free energy    TOTEN  =       -25.41269390 eV

  energy without entropy =      -25.40688662  energy(sigma->0) =      -25.41075814


--------------------------------------------------------------------------------------------------------




--------------------------------------- Iteration      1(  17)  ---------------------------------------


    POTLOK:  cpu time      0.0185: real time      0.0188
    SETDIJ:  cpu time      0.0059: real time      0.0059
     EDDAV:  cpu time      0.1730: real time      0.1747
       DOS:  cpu time      0.0007: real time      0.0007
    CHARGE:  cpu time      0.0446: real time      0.0448
    MIXING:  cpu time      0.0013: real time      0.0013
    --------------------------------------------
      LOOP:  cpu time      0.2440: real time      0.2462

 eigenvalue-minimisations  :   696
 total energy-change (2. order) :-0.2226166E+00  (-0.1327294E-01)
 number of electron      77.0000007 magnetization       0.7699440
 augmentation part       49.1591322 magnetization       0.3397544

 Broyden mixing:
  rms(total) = 0.48457E-01    rms(broyden)= 0.48436E-01
  rms(prec ) = 0.50040E-01
  weight for this iteration     100.00

 eigenvalues of (default mixing * dielectric matrix)
  average eigenvalue GAMMA=   1.7831
 10.5788  3.4269  1.4183  1.4183  0.8506  0.8506  0.6674  0.6674  0.2650  0.3428
  0.4823  0.4292

 Free energy of the ion-electron system (eV)
  ---------------------------------------------------
  alpha Z        PSCENC =       227.76330227
  Ewald energy   TEWEN  =     40713.06922123
  -Hartree energ DENC   =    -50211.30996349
  -exchange      EXHF   =         0.00000000
  -V(xc)+E(xc)   XCENC  =       312.98138531
  PAW double counting   =      9138.22183678    -9890.19907022
  entropy T*S    EENTRO =        -0.00257230
  eigenvalues    EBANDS =       -52.86293148
  atomic energy  EATOM  =      9736.70348140
  Solvation  Ediel_sol  =         0.00000000
  ---------------------------------------------------
  free energy    TOTEN  =       -25.63531050 eV

  energy without entropy =      -25.63273820  energy(sigma->0) =      -25.63445306


--------------------------------------------------------------------------------------------------------




--------------------------------------- Iteration      1(  18)  ---------------------------------------


    POTLOK:  cpu time      0.0175: real time      0.0178
    SETDIJ:  cpu time      0.0059: real time      0.0059
     EDDAV:  cpu time      0.1772: real time      0.1785
       DOS:  cpu time      0.0007: real time      0.0007
    CHARGE:  cpu time      0.0441: real time      0.0443
    MIXING:  cpu time      0.0013: real time      0.0013
    --------------------------------------------
      LOOP:  cpu time      0.2467: real time      0.2485

 eigenvalue-minimisations  :   720
 total energy-change (2. order) :-0.2599993E+00  (-0.1463617E-01)
 number of electron      77.0000007 magnetization       0.5853412
 augmentation part       49.1869607 magnetization       0.2440885

 Broyden mixing:
  rms(total) = 0.57447E-01    rms(broyden)= 0.57422E-01
  rms(prec ) = 0.58894E-01
  weight for this iteration     100.00

 eigenvalues of (default mixing * dielectric matrix)
  average eigenvalue GAMMA=   1.7702
 10.8977  3.6043  2.0189  1.0369  1.0369  0.7620  0.7620  0.7298  0.6503  0.2650
  0.3427  0.4773  0.4292

 Free energy of the ion-electron system (eV)
  ---------------------------------------------------
  alpha Z        PSCENC =       227.76330227
  Ewald energy   TEWEN  =     40713.06922123
  -Hartree energ DENC   =    -50197.90209591
  -exchange      EXHF   =         0.00000000
  -V(xc)+E(xc)   XCENC  =       312.74497804
  PAW double counting   =      9125.34742314    -9876.62062542
  entropy T*S    EENTRO =        -0.00097238
  eigenvalues    EBANDS =       -67.00002213
  atomic energy  EATOM  =      9736.70348140
  Solvation  Ediel_sol  =         0.00000000
  ---------------------------------------------------
  free energy    TOTEN  =       -25.89530976 eV

  energy without entropy =      -25.89433738  energy(sigma->0) =      -25.89498563


--------------------------------------------------------------------------------------------------------




--------------------------------------- Iteration      1(  19)  ---------------------------------------


    POTLOK:  cpu time      0.0175: real time      0.0178
    SETDIJ:  cpu time      0.0056: real time      0.0056
     EDDAV:  cpu time      0.1938: real time      0.1952
       DOS:  cpu time      0.0007: real time      0.0007
    CHARGE:  cpu time      0.0440: real time      0.0442
    MIXING:  cpu time      0.0014: real time      0.0014
    --------------------------------------------
      LOOP:  cpu time      0.2630: real time      0.2650

 eigenvalue-minimisations  :   812
 total energy-change (2. order) :-0.1231299E+00  (-0.3239118E-02)
 number of electron      77.0000007 magnetization       0.3733516
 augmentation part       49.1456360 magnetization       0.1085269

 Broyden mixing:
  rms(total) = 0.37530E-01    rms(broyden)= 0.37513E-01
  rms(prec ) = 0.39940E-01
  weight for this iteration     100.00

 eigenvalues of (default mixing * dielectric matrix)
  average eigenvalue GAMMA=   1.8208
 11.3016  4.4632  2.3959  1.1390  1.1390  0.8091  0.8091  0.6620  0.6620  0.6014
  0.2650  0.3428  0.4797  0.4211

 Free energy of the ion-electron system (eV)
  ---------------------------------------------------
  alpha Z        PSCENC =       227.76330227
  Ewald energy   TEWEN  =     40713.06922123
  -Hartree energ DENC   =    -50193.45523875
  -exchange      EXHF   =         0.00000000
  -V(xc)+E(xc)   XCENC  =       312.65767788
  PAW double counting   =      9139.45943466    -9892.15309181
  entropy T*S    EENTRO =         0.00402201
  eigenvalues    EBANDS =       -70.06724861
  atomic energy  EATOM  =      9736.70348140
  Solvation  Ediel_sol  =         0.00000000
  ---------------------------------------------------
  free energy    TOTEN  =       -26.01843970 eV

  energy without entropy =      -26.02246172  energy(sigma->0) =      -26.01978037


--------------------------------------------------------------------------------------------------------




--------------------------------------- Iteration      1(  20)  ---------------------------------------


    POTLOK:  cpu time      0.0176: real time      0.0184
    SETDIJ:  cpu time      0.0056: real time      0.0057
     EDDAV:  cpu time      0.2225: real time      0.2244
       DOS:  cpu time      0.0007: real time      0.0007
    CHARGE:  cpu time      0.0439: real time      0.0441
    MIXING:  cpu time      0.0015: real time      0.0015
    --------------------------------------------
      LOOP:  cpu time      0.2918: real time      0.2947

 eigenvalue-minimisations  :   952
 total energy-change (2. order) :-0.1487241E+00  (-0.3620622E-02)
 number of electron      77.0000008 magnetization       0.2122117
 augmentation part       49.1556331 magnetization       0.0384276

 Broyden mixing:
  rms(total) = 0.29351E-01    rms(broyden)= 0.29321E-01
  rms(prec ) = 0.32198E-01
  weight for this iteration     100.00

 eigenvalues of (default mixing * dielectric matrix)
  average eigenvalue GAMMA=   1.8754
 11.8673  5.1717  2.8055  1.0772  1.0772  1.0451  0.8491  0.8491  0.6752  0.6752
  0.2650  0.3428  0.5043  0.5043  0.4218

 Free energy of the ion-electron system (eV)
  ---------------------------------------------------
  alpha Z        PSCENC =       227.76330227
  Ewald energy   TEWEN  =     40713.06922123
  -Hartree energ DENC   =    -50180.88591646
  -exchange      EXHF   =         0.00000000
  -V(xc)+E(xc)   XCENC  =       312.49002980
  PAW double counting   =      9142.06591077    -9895.32013194
  entropy T*S    EENTRO =         0.00316433
  eigenvalues    EBANDS =       -82.05622521
  atomic energy  EATOM  =      9736.70348140
  Solvation  Ediel_sol  =         0.00000000
  ---------------------------------------------------
  free energy    TOTEN  =       -26.16716382 eV

  energy without entropy =      -26.17032815  energy(sigma->0) =      -26.16821860


--------------------------------------------------------------------------------------------------------




--------------------------------------- Iteration      1(  21)  ---------------------------------------


    POTLOK:  cpu time      0.0175: real time      0.0178
    SETDIJ:  cpu time      0.0057: real time      0.0057
     EDDAV:  cpu time      0.1802: real time      0.1821
       DOS:  cpu time      0.0007: real time      0.0008
    CHARGE:  cpu time      0.0439: real time      0.0440
    MIXING:  cpu time      0.0016: real time      0.0016
    --------------------------------------------
      LOOP:  cpu time      0.2495: real time      0.2519

 eigenvalue-minimisations  :   732
 total energy-change (2. order) :-0.1056993E+00  (-0.1884639E-02)
 number of electron      77.0000008 magnetization       0.1036038
 augmentation part       49.1265539 magnetization      -0.0258064

 Broyden mixing:
  rms(total) = 0.27720E-01    rms(broyden)= 0.27715E-01
  rms(prec ) = 0.28489E-01
  weight for this iteration     100.00

 eigenvalues of (default mixing * dielectric matrix)
  average eigenvalue GAMMA=   2.0649
 13.1297  7.8966  2.7239  1.4613  1.1033  1.1033  0.8315  0.8315  0.7134  0.6342
  0.6342  0.2650  0.3428  0.4716  0.4716  0.4243

 Free energy of the ion-electron system (eV)
  ---------------------------------------------------
  alpha Z        PSCENC =       227.76330227
  Ewald energy   TEWEN  =     40713.06922123
  -Hartree energ DENC   =    -50180.83101287
  -exchange      EXHF   =         0.00000000
  -V(xc)+E(xc)   XCENC  =       312.38370391
  PAW double counting   =      9155.49945246    -9909.64434204
  entropy T*S    EENTRO =         0.00574081
  eigenvalues    EBANDS =       -81.22241033
  atomic energy  EATOM  =      9736.70348140
  Solvation  Ediel_sol  =         0.00000000
  ---------------------------------------------------
  free energy    TOTEN  =       -26.27286315 eV

  energy without entropy =      -26.27860397  energy(sigma->0) =      -26.27477676


--------------------------------------------------------------------------------------------------------




--------------------------------------- Iteration      1(  22)  ---------------------------------------


    POTLOK:  cpu time      0.0175: real time      0.0177
    SETDIJ:  cpu time      0.0058: real time      0.0058
     EDDAV:  cpu time      0.1758: real time      0.1771
       DOS:  cpu time      0.0007: real time      0.0007
    CHARGE:  cpu time      0.0450: real time      0.0451
    MIXING:  cpu time      0.0016: real time      0.0017
    --------------------------------------------
      LOOP:  cpu time      0.2463: real time      0.2481

 eigenvalue-minimisations  :   716
 total energy-change (2. order) :-0.2384397E+00  (-0.3204372E-02)
 number of electron      77.0000008 magnetization       0.0799426
 augmentation part       49.1832667 magnetization       0.0660844

 Broyden mixing:
  rms(total) = 0.27147E-01    rms(broyden)= 0.27128E-01
  rms(prec ) = 0.34547E-01
  weight for this iteration     100.00

 eigenvalues of (default mixing * dielectric matrix)
  average eigenvalue GAMMA=   2.0836
 14.0315  8.0342  2.9348  1.8530  1.1221  1.1221  0.8229  0.8229  0.7741  0.7741
  0.6218  0.6218  0.2650  0.3428  0.4718  0.4235  0.3825

 Free energy of the ion-electron system (eV)
  ---------------------------------------------------
  alpha Z        PSCENC =       227.76330227
  Ewald energy   TEWEN  =     40713.06922123
  -Hartree energ DENC   =    -50169.01918235
  -exchange      EXHF   =         0.00000000
  -V(xc)+E(xc)   XCENC  =       312.09570766
  PAW double counting   =      9146.91083357    -9900.24612219
  entropy T*S    EENTRO =        -0.00024064
  eigenvalues    EBANDS =       -93.78830377
  atomic energy  EATOM  =      9736.70348140
  Solvation  Ediel_sol  =         0.00000000
  ---------------------------------------------------
  free energy    TOTEN  =       -26.51130282 eV

  energy without entropy =      -26.51106219  energy(sigma->0) =      -26.51122261


--------------------------------------------------------------------------------------------------------




--------------------------------------- Iteration      1(  23)  ---------------------------------------


    POTLOK:  cpu time      0.0175: real time      0.0178
    SETDIJ:  cpu time      0.0056: real time      0.0057
     EDDAV:  cpu time      0.1788: real time      0.1802
       DOS:  cpu time      0.0007: real time      0.0007
    CHARGE:  cpu time      0.0450: real time      0.0452
    MIXING:  cpu time      0.0018: real time      0.0018
    --------------------------------------------
      LOOP:  cpu time      0.2495: real time      0.2513

 eigenvalue-minimisations  :   728
 total energy-change (2. order) :-0.2258584E-01  (-0.4577900E-03)
 number of electron      77.0000008 magnetization       0.0242123
 augmentation part       49.1644186 magnetization       0.0050351

 Broyden mixing:
  rms(total) = 0.13661E-01    rms(broyden)= 0.13658E-01
  rms(prec ) = 0.15593E-01
  weight for this iteration     100.00

 eigenvalues of (default mixing * dielectric matrix)
  average eigenvalue GAMMA=   2.2174
 16.1635  8.7127  3.1900  2.2285  1.1682  1.1000  1.1000  0.8416  0.8416  0.7509
  0.7509  0.6112  0.2650  0.5620  0.3428  0.4700  0.4239  0.3905

 Free energy of the ion-electron system (eV)
  ---------------------------------------------------
  alpha Z        PSCENC =       227.76330227
  Ewald energy   TEWEN  =     40713.06922123
  -Hartree energ DENC   =    -50172.38994473
  -exchange      EXHF   =         0.00000000
  -V(xc)+E(xc)   XCENC  =       312.10155667
  PAW double counting   =      9147.45316122    -9900.73638319
  entropy T*S    EENTRO =         0.00178706
  eigenvalues    EBANDS =       -90.50007060
  atomic energy  EATOM  =      9736.70348140
  Solvation  Ediel_sol  =         0.00000000
  ---------------------------------------------------
  free energy    TOTEN  =       -26.53388866 eV

  energy without entropy =      -26.53567573  energy(sigma->0) =      -26.53448435


--------------------------------------------------------------------------------------------------------




--------------------------------------- Iteration      1(  24)  ---------------------------------------


    POTLOK:  cpu time      0.0175: real time      0.0177
    SETDIJ:  cpu time      0.0056: real time      0.0057
     EDDAV:  cpu time      0.1678: real time      0.1691
       DOS:  cpu time      0.0007: real time      0.0007
    CHARGE:  cpu time      0.0452: real time      0.0454
    MIXING:  cpu time      0.0019: real time      0.0019
    --------------------------------------------
      LOOP:  cpu time      0.2388: real time      0.2406

 eigenvalue-minimisations  :   664
 total energy-change (2. order) :-0.6543531E-01  (-0.6185355E-03)
 number of electron      77.0000008 magnetization      -0.0060069
 augmentation part       49.1581038 magnetization      -0.0039759

 Broyden mixing:
  rms(total) = 0.81580E-02    rms(broyden)= 0.81525E-02
  rms(prec ) = 0.14081E-01
  weight for this iteration     100.00

 eigenvalues of (default mixing * dielectric matrix)
  average eigenvalue GAMMA=   2.2026
 16.7781  8.8518  3.4900  2.3960  1.2490  1.0928  1.0928  0.8165  0.8165  0.8239
  0.7476  0.6620  0.6620  0.2650  0.3428  0.4781  0.4781  0.4253  0.3808

 Free energy of the ion-electron system (eV)
  ---------------------------------------------------
  alpha Z        PSCENC =       227.76330227
  Ewald energy   TEWEN  =     40713.06922123
  -Hartree energ DENC   =    -50171.84744336
  -exchange      EXHF   =         0.00000000
  -V(xc)+E(xc)   XCENC  =       312.06211747
  PAW double counting   =      9142.75954433    -9895.71741205
  entropy T*S    EENTRO =         0.00222516
  eigenvalues    EBANDS =       -91.39436043
  atomic energy  EATOM  =      9736.70348140
  Solvation  Ediel_sol  =         0.00000000
  ---------------------------------------------------
  free energy    TOTEN  =       -26.59932397 eV

  energy without entropy =      -26.60154913  energy(sigma->0) =      -26.60006569


--------------------------------------------------------------------------------------------------------




--------------------------------------- Iteration      1(  25)  ---------------------------------------


    POTLOK:  cpu time      0.0175: real time      0.0177
    SETDIJ:  cpu time      0.0056: real time      0.0057
     EDDAV:  cpu time      0.1533: real time      0.1551
       DOS:  cpu time      0.0007: real time      0.0007
    CHARGE:  cpu time      0.0440: real time      0.0442
    MIXING:  cpu time      0.0020: real time      0.0020
    --------------------------------------------
      LOOP:  cpu time      0.2231: real time      0.2254

 eigenvalue-minimisations  :   576
 total energy-change (2. order) :-0.1441660E-01  (-0.3929595E-03)
 number of electron      77.0000008 magnetization      -0.0019428
 augmentation part       49.1505086 magnetization       0.0036858

 Broyden mixing:
  rms(total) = 0.50240E-02    rms(broyden)= 0.50171E-02
  rms(prec ) = 0.68246E-02
  weight for this iteration     100.00

 eigenvalues of (default mixing * dielectric matrix)
  average eigenvalue GAMMA=   2.1846
 17.2725  9.0551  3.5397  2.5243  1.5356  1.0984  1.0984  0.9899  0.7954  0.7954
  0.7220  0.7220  0.6627  0.2650  0.3428  0.4992  0.4992  0.4720  0.4233  0.3790

 Free energy of the ion-electron system (eV)
  ---------------------------------------------------
  alpha Z        PSCENC =       227.76330227
  Ewald energy   TEWEN  =     40713.06922123
  -Hartree energ DENC   =    -50172.17275878
  -exchange      EXHF   =         0.00000000
  -V(xc)+E(xc)   XCENC  =       312.06099622
  PAW double counting   =      9141.76067557    -9894.67964578
  entropy T*S    EENTRO =         0.00290108
  eigenvalues    EBANDS =       -91.12191378
  atomic energy  EATOM  =      9736.70348140
  Solvation  Ediel_sol  =         0.00000000
  ---------------------------------------------------
  free energy    TOTEN  =       -26.61374057 eV

  energy without entropy =      -26.61664165  energy(sigma->0) =      -26.61470760


--------------------------------------------------------------------------------------------------------




--------------------------------------- Iteration      1(  26)  ---------------------------------------


    POTLOK:  cpu time      0.0175: real time      0.0177
    SETDIJ:  cpu time      0.0056: real time      0.0056
     EDDAV:  cpu time      0.1399: real time      0.1409
       DOS:  cpu time      0.0007: real time      0.0007
    CHARGE:  cpu time      0.0438: real time      0.0440
    MIXING:  cpu time      0.0021: real time      0.0021
    --------------------------------------------
      LOOP:  cpu time      0.2096: real time      0.2112

 eigenvalue-minimisations  :   500
 total energy-change (2. order) :-0.3739382E-02  (-0.7767199E-04)
 number of electron      77.0000008 magnetization       0.0049644
 augmentation part       49.1483222 magnetization       0.0069386

 Broyden mixing:
  rms(total) = 0.38806E-02    rms(broyden)= 0.38795E-02
  rms(prec ) = 0.42665E-02
  weight for this iteration     100.00

 eigenvalues of (default mixing * dielectric matrix)
  average eigenvalue GAMMA=   2.1808
 17.5113  9.3037  3.4587  2.9581  1.8214  1.2371  1.0754  1.0754  0.8406  0.8406
  0.8119  0.7165  0.7165  0.6345  0.2650  0.5253  0.4726  0.3428  0.4231  0.3829
  0.3829

 Free energy of the ion-electron system (eV)
  ---------------------------------------------------
  alpha Z        PSCENC =       227.76330227
  Ewald energy   TEWEN  =     40713.06922123
  -Hartree energ DENC   =    -50172.21541547
  -exchange      EXHF   =         0.00000000
  -V(xc)+E(xc)   XCENC  =       312.05992369
  PAW double counting   =      9140.77553497    -9893.64398792
  entropy T*S    EENTRO =         0.00311980
  eigenvalues    EBANDS =       -91.13265992
  atomic energy  EATOM  =      9736.70348140
  Solvation  Ediel_sol  =         0.00000000
  ---------------------------------------------------
  free energy    TOTEN  =       -26.61747995 eV

  energy without entropy =      -26.62059975  energy(sigma->0) =      -26.61851989


--------------------------------------------------------------------------------------------------------




--------------------------------------- Iteration      1(  27)  ---------------------------------------


    POTLOK:  cpu time      0.0175: real time      0.0177
    SETDIJ:  cpu time      0.0056: real time      0.0056
     EDDAV:  cpu time      0.1294: real time      0.1304
       DOS:  cpu time      0.0007: real time      0.0007
    CHARGE:  cpu time      0.0437: real time      0.0439
    MIXING:  cpu time      0.0021: real time      0.0022
    --------------------------------------------
      LOOP:  cpu time      0.1991: real time      0.2006

 eigenvalue-minimisations  :   440
 total energy-change (2. order) :-0.3327518E-02  (-0.3287142E-04)
 number of electron      77.0000008 magnetization      -0.0006309
 augmentation part       49.1511055 magnetization       0.0002626

 Broyden mixing:
  rms(total) = 0.18511E-02    rms(broyden)= 0.18506E-02
  rms(prec ) = 0.22614E-02
  weight for this iteration     100.00

 eigenvalues of (default mixing * dielectric matrix)
  average eigenvalue GAMMA=   2.1738
 17.8648  9.3683  3.6931  3.0580  2.2180  1.1505  1.1505  1.0218  1.0218  0.8248
  0.8248  0.7755  0.7755  0.6472  0.6472  0.2650  0.5166  0.4713  0.3428  0.4233
  0.3899  0.3727

 Free energy of the ion-electron system (eV)
  ---------------------------------------------------
  alpha Z        PSCENC =       227.76330227
  Ewald energy   TEWEN  =     40713.06922123
  -Hartree energ DENC   =    -50171.60081713
  -exchange      EXHF   =         0.00000000
  -V(xc)+E(xc)   XCENC  =       312.05290165
  PAW double counting   =      9139.65687619    -9892.47140700
  entropy T*S    EENTRO =         0.00300451
  eigenvalues    EBANDS =       -91.79737058
  atomic energy  EATOM  =      9736.70348140
  Solvation  Ediel_sol  =         0.00000000
  ---------------------------------------------------
  free energy    TOTEN  =       -26.62080747 eV

  energy without entropy =      -26.62381198  energy(sigma->0) =      -26.62180897


--------------------------------------------------------------------------------------------------------




--------------------------------------- Iteration      1(  28)  ---------------------------------------


[...]
     47       7.8760      0.00000
     48       8.3468      0.00000
     49      10.1749      0.00000
     50      10.3913      0.00000
     51      12.9513      0.00000
     52      13.0265      0.00000

 k-point     2 :       0.3333    0.0000    0.0000
  band No.  band energies     occupation 
      1      -4.6895      1.00000
      2      -4.2468      1.00000
      3      -3.7398      1.00000
      4      -3.2682      1.00000
      5      -2.8878      1.00000
      6      -2.7080      1.00000
      7      -2.5547      1.00000
      8      -2.4976      1.00000
      9      -2.2771      1.00000
     10      -2.0335      1.00000
     11      -1.8749      1.00000
     12      -1.6882      1.00000
     13      -1.6067      1.00000
     14      -1.5152      1.00000
     15      -1.5052      1.00000
     16      -1.3979      1.00000
     17      -1.2830      1.00000
     18      -1.2640      1.00000
     19      -1.0996      1.00000
     20      -0.9379      1.00000
     21      -0.9070      1.00000
     22      -0.6944      1.00000
     23      -0.6700      1.00000
     24      -0.5071      1.00000
     25      -0.4820      1.00000
     26      -0.4623      1.00000
     27      -0.3992      1.00000
     28      -0.3918      1.00000
     29      -0.3266      1.00000
     30      -0.2532      1.00000
     31      -0.2471      1.00000
     32      -0.1488      1.00000
     33      -0.0681      1.00000
     34       0.0185      1.00000
     35       0.1984      1.00000
     36       0.2707      1.00000
     37       0.3851      1.00000
     38       0.5008      1.00000
     39       0.5442      1.00000
     40       1.6333      0.01857
     41       3.0889     -0.00000
     42       4.8250     -0.00000
     43       6.2724     -0.00000
     44       8.0211      0.00000
     45       8.5240      0.00000
     46       9.1062      0.00000
     47       9.6580      0.00000
     48       9.8834      0.00000
     49      10.3219      0.00000
     50      10.9664      0.00000
     51      11.1877      0.00000
     52      11.5422      0.00000

 k-point     3 :      -0.3333    0.3333    0.0000
  band No.  band energies     occupation 
      1      -2.6371      1.00000
      2      -2.6063      1.00000
      3      -2.5980      1.00000
      4      -2.5042      1.00000
      5      -2.5017      1.00000
      6      -2.4434      1.00000
      7      -2.4122      1.00000
      8      -2.3996      1.00000
      9      -2.3355      1.00000
     10      -2.1480      1.00000
     11      -2.0479      1.00000
     12      -1.9136      1.00000
     13      -1.8751      1.00000
     14      -1.7412      1.00000
     15      -1.7327      1.00000
     16      -1.6951      1.00000
     17      -1.3834      1.00000
     18      -1.2277      1.00000
     19      -0.7794      1.00000
     20      -0.7778      1.00000
     21      -0.7504      1.00000
     22      -0.7224      1.00000
     23      -0.7028      1.00000
     24      -0.6912      1.00000
     25      -0.5988      1.00000
     26      -0.5730      1.00000
     27      -0.3423      1.00000
     28      -0.3120      1.00000
     29      -0.2601      1.00000
     30      -0.1260      1.00000
     31      -0.1114      1.00000
     32       0.0112      1.00000
     33       0.0481      1.00000
     34       0.1594      1.00000
     35       0.2316      1.00000
     36       4.7133     -0.00000
     37       4.7181     -0.00000
     38       4.7616     -0.00000
     39       4.9811     -0.00000
     40       5.3006     -0.00000
     41       5.3959     -0.00000
     42       6.1376     -0.00000
     43       6.2471     -0.00000
     44       6.6171     -0.00000
     45       6.9329     -0.00000
     46       6.9556      0.00000
     47       7.1778      0.00000
     48       8.1687      0.00000
     49       8.1907      0.00000
     50       9.4852      0.00000
     51       9.7784      0.00000
     52      10.7730      0.00000


--------------------------------------------------------------------------------------------------------


 soft charge-density along one line, spin component           1
         0         1         2         3         4         5         6         7         8         9
 total charge-density along one line
 
 soft charge-density along one line, spin component           2
         0         1         2         3         4         5         6         7         8         9
 total charge-density along one line
 
 pseudopotential strength for first ion, spin component:           1
 -6.635  -0.000   0.000  -0.004   0.000  -1.903   0.000  -0.000
 -0.000  -6.670   0.000   0.000  -0.004   0.000  -1.878  -0.000
  0.000   0.000  -6.698   0.000   0.000  -0.000  -0.000  -1.859
 -0.004   0.000   0.000  -6.670  -0.000   0.003  -0.000  -0.000
  0.000  -0.004   0.000  -0.000  -6.635  -0.000   0.003  -0.000
 -1.903   0.000  -0.000   0.003  -0.000   8.321  -0.000   0.000
  0.000  -1.878  -0.000  -0.000   0.003  -0.000   8.306  -0.000
 -0.000  -0.000  -1.859  -0.000  -0.000   0.000  -0.000   8.292
  0.003  -0.000  -0.000  -1.878   0.000  -0.002  -0.000  -0.000
 -0.000   0.003  -0.000   0.000  -1.903   0.000  -0.002   0.000
  0.000   0.000   0.003   0.000   0.000   0.000   0.000   0.001
  0.000   0.000   0.004   0.000   0.000   0.000   0.000   0.002
  0.000  -0.013  -0.000  -0.000   0.000  -0.000   0.012   0.000
 -0.000   0.000  -0.012   0.000  -0.000  -0.000   0.000   0.010
  0.000  -0.000  -0.000  -0.013   0.000   0.000  -0.000   0.000
  0.000  -0.016  -0.000   0.000   0.000  -0.000   0.015   0.000
  0.000   0.000  -0.014   0.000   0.000  -0.000   0.000   0.011
  0.000   0.000  -0.000  -0.016   0.000   0.000  -0.000   0.000
 pseudopotential strength for first ion, spin component:           2
 -6.635  -0.000   0.000  -0.004   0.000  -1.903   0.000  -0.000
 -0.000  -6.670   0.000   0.000  -0.004   0.000  -1.878  -0.000
  0.000   0.000  -6.698   0.000   0.000  -0.000  -0.000  -1.859
 -0.004   0.000   0.000  -6.670  -0.000   0.003  -0.000  -0.000
  0.000  -0.004   0.000  -0.000  -6.635  -0.000   0.003  -0.000
 -1.903   0.000  -0.000   0.003  -0.000   8.321  -0.000   0.000
  0.000  -1.878  -0.000  -0.000   0.003  -0.000   8.306  -0.000
 -0.000  -0.000  -1.859  -0.000  -0.000   0.000  -0.000   8.292
  0.003  -0.000  -0.000  -1.878   0.000  -0.002  -0.000  -0.000
 -0.000   0.003  -0.000   0.000  -1.903   0.000  -0.002   0.000
  0.000   0.000   0.003   0.000   0.000   0.000   0.000   0.001
  0.000   0.000   0.004   0.000   0.000   0.000   0.000   0.002
  0.000  -0.013  -0.000  -0.000   0.000  -0.000   0.012   0.000
 -0.000   0.000  -0.012   0.000  -0.000  -0.000   0.000   0.010
  0.000  -0.000  -0.000  -0.013   0.000   0.000  -0.000   0.000
  0.000  -0.016  -0.000   0.000   0.000  -0.000   0.015   0.000
  0.000   0.000  -0.014   0.000   0.000  -0.000   0.000   0.011
  0.000   0.000  -0.000  -0.016   0.000   0.000  -0.000   0.000
 total augmentation occupancy for first ion, spin component:           1
  1.931   0.000  -0.000  -0.004   0.000  -0.018  -0.000   0.000   0.004   0.000   0.000  -0.000  -0.000  -0.000   0.006   0.000
  0.000   1.928   0.000   0.000  -0.004  -0.000  -0.029  -0.000  -0.000   0.004   0.000   0.000  -0.001   0.000  -0.000  -0.012
 -0.000   0.000   1.901   0.000  -0.000   0.000  -0.000  -0.019  -0.000   0.000  -0.097   0.026  -0.000   0.072  -0.000   0.000
 -0.004   0.000   0.000   1.928  -0.000   0.004  -0.000  -0.000  -0.029   0.000  -0.000   0.000  -0.000  -0.000  -0.001  -0.000
  0.000  -0.004  -0.000  -0.000   1.931   0.000   0.004   0.000   0.000  -0.018   0.000  -0.000   0.006  -0.000   0.000  -0.001
 -0.018  -0.000   0.000   0.004   0.000   0.013  -0.000  -0.000   0.000   0.000   0.000  -0.000  -0.000  -0.000   0.003   0.000
 -0.000  -0.029  -0.000  -0.000   0.004  -0.000   0.009  -0.000   0.000   0.000   0.000   0.000   0.017   0.000   0.000  -0.001
  0.000  -0.000  -0.019  -0.000   0.000  -0.000  -0.000   0.010  -0.000  -0.000  -0.025   0.001  -0.000   0.018  -0.000   0.000
  0.004  -0.000  -0.000  -0.029   0.000   0.000   0.000  -0.000   0.009   0.000   0.000  -0.000   0.000   0.000   0.017  -0.000
  0.000   0.004   0.000   0.000  -0.018   0.000   0.000  -0.000   0.000   0.013   0.000  -0.000   0.003  -0.000   0.000  -0.000
  0.000   0.000  -0.097   0.000   0.000   0.000  -0.000  -0.025  -0.000   0.000   1.652  -0.139   0.000   0.152  -0.000   0.000
 -0.000   0.000   0.026   0.000  -0.000  -0.000   0.000   0.001  -0.000  -0.000  -0.139   0.016   0.000  -0.022  -0.000   0.000
 -0.000  -0.001  -0.000  -0.000   0.006  -0.000   0.017  -0.000   0.000   0.003   0.000   0.000   0.216  -0.000   0.000  -0.014
 -0.000   0.000   0.072  -0.000  -0.000  -0.000  -0.000   0.018   0.000  -0.000   0.152  -0.022  -0.000   0.125  -0.000   0.000
  0.006  -0.000  -0.000  -0.001   0.000   0.003   0.000  -0.000   0.017   0.000  -0.000  -0.000   0.000  -0.000   0.216  -0.000
  0.000  -0.012   0.000  -0.000  -0.001   0.000  -0.001   0.000  -0.000  -0.000   0.000   0.000  -0.014   0.000  -0.000   0.001
  0.000  -0.000  -0.018  -0.000   0.000   0.000   0.000  -0.001  -0.000   0.000  -0.020   0.002   0.000  -0.009   0.000   0.000
 -0.001  -0.000   0.000  -0.012  -0.000  -0.000  -0.000   0.000  -0.001  -0.000   0.000   0.000  -0.000   0.000  -0.014   0.000
 total augmentation occupancy for first ion, spin component:           2
 -0.000  -0.000  -0.000   0.000   0.000   0.000  -0.000  -0.000   0.000   0.000  -0.000  -0.000   0.000   0.000  -0.000   0.000
 -0.000  -0.000  -0.000  -0.000   0.000  -0.000   0.000  -0.000   0.000   0.000   0.000   0.000   0.000  -0.000   0.000  -0.000
 -0.000  -0.000   0.000  -0.000  -0.000  -0.000  -0.000   0.000  -0.000  -0.000   0.000   0.000   0.000  -0.000   0.000   0.000
  0.000  -0.000  -0.000  -0.000   0.000   0.000   0.000  -0.000   0.000   0.000   0.000  -0.000   0.000   0.000   0.000  -0.000
  0.000   0.000  -0.000   0.000  -0.000   0.000   0.000  -0.000   0.000   0.000  -0.000  -0.000  -0.000   0.000  -0.000  -0.000
  0.000  -0.000  -0.000   0.000   0.000   0.000   0.000  -0.000  -0.000   0.000   0.000   0.000  -0.000  -0.000   0.000  -0.000
 -0.000   0.000  -0.000   0.000   0.000   0.000   0.000   0.000   0.000  -0.000   0.000   0.000  -0.000   0.000  -0.000   0.000
 -0.000  -0.000   0.000  -0.000  -0.000  -0.000   0.000   0.000   0.000  -0.000  -0.000  -0.000  -0.000   0.000  -0.000  -0.000
  0.000   0.000  -0.000   0.000   0.000  -0.000   0.000   0.000   0.000  -0.000   0.000   0.000  -0.000  -0.000  -0.000   0.000
  0.000   0.000  -0.000   0.000   0.000   0.000  -0.000  -0.000  -0.000   0.000   0.000   0.000   0.000  -0.000   0.000   0.000
 -0.000   0.000   0.000   0.000  -0.000   0.000   0.000  -0.000   0.000   0.000   0.000   0.000   0.000  -0.000  -0.000   0.000
 -0.000   0.000   0.000  -0.000  -0.000   0.000   0.000  -0.000  -0.000   0.000   0.000   0.000   0.000  -0.000   0.000   0.000
  0.000   0.000   0.000   0.000  -0.000  -0.000  -0.000  -0.000  -0.000   0.000   0.000   0.000   0.000   0.000   0.000  -0.000
  0.000  -0.000  -0.000   0.000   0.000  -0.000   0.000   0.000  -0.000  -0.000  -0.000  -0.000   0.000   0.000  -0.000   0.000
 -0.000   0.000   0.000   0.000  -0.000   0.000  -0.000  -0.000  -0.000   0.000   0.000  -0.000   0.000  -0.000   0.000  -0.000
  0.000  -0.000   0.000  -0.000  -0.000  -0.000   0.000  -0.000   0.000   0.000   0.000   0.000  -0.000   0.000  -0.000   0.000
  0.000   0.000  -0.000  -0.000   0.000  -0.000   0.000   0.000   0.000  -0.000  -0.000  -0.000   0.000   0.000   0.000  -0.000
 -0.000  -0.000   0.000  -0.000  -0.000   0.000   0.000  -0.000   0.000   0.000   0.000   0.000  -0.000   0.000  -0.000   0.000


------------------------ aborting loop because EDIFF is reached ----------------------------------------



 DIPCOR: dipole corrections for dipol
 direction  3 min pos   206,
 dipolmoment           0.000000      0.000000     -0.005658 electrons x Angstroem
 Tr[quadrupol]       -63.204565

 energy correction for charged system         0.000000 eV
 dipol+quadrupol energy correction            0.000018 eV
 added-field ion interaction          0.000000 eV  (added to PSCEN)

 
  *************** adding dipol energy to TOTEN NOW **************** 
    CHARGE:  cpu time      0.0467: real time      0.0469
    FORLOC:  cpu time      0.0007: real time      0.0007
    FORNL :  cpu time      0.0640: real time      0.0642
    STRESS:  cpu time      0.0758: real time      0.0763
    FORCOR:  cpu time      0.0174: real time      0.0175
    FORHAR:  cpu time      0.0024: real time      0.0024
    MIXING:  cpu time      0.0005: real time      0.0005
    OFIELD:  cpu time      0.0000: real time      0.0000

 ---------------------------------------------------------------------------------------------

         DFTD3 V3.0 Rev 1        
 Edisp (eV)   -2.93125

 E6    (eV) :    -1.2059
 E8    (eV) :    -1.7253
 % E8        : 58.86
    FORVDW:  cpu time      0.0368: real time      0.0369

  FORCE on cell =-STRESS in cart. coord.  units (eV):
  Direction    XX          YY          ZZ          XY          YZ          ZX
  --------------------------------------------------------------------------------------
  Alpha Z   227.76330   227.76330   227.76330
  Ewald   48855.14685 48855.14685-53987.94028    -0.00000    -0.00000    -0.00000
  Hartree 51579.66378 51579.66378-49986.52359     0.00000    -0.00000    -0.00000
  E(xc)    -450.18338  -450.18326  -450.59299    -0.00011     0.00000     0.00000
  Local  ************************103063.57723     0.00351     0.00000     0.00000
  n-local  -153.00843  -146.18143  -154.47082     5.91262    -1.00606     1.74696
  augment   664.72090   664.72479   659.41534    -0.00337    -0.00000    -0.00001
  Kinetic   638.91988   619.11253   630.07558   -17.15323    -1.85404     3.21146
  Fock        0.00000     0.00000     0.00000     0.00000     0.00000     0.00000
  vdW        -3.55725    -3.55725    -2.90106     0.00000     0.00000     0.00000
  -------------------------------------------------------------------------------------
  Total      -5.23311    -5.23311    -1.59729    -0.00000     0.00000    -0.00000
  in kB     -53.29004   -53.29004   -16.26560    -0.00000     0.00000    -0.00000
  external pressure =      -40.95 kB  Pullay stress =        0.00 kB


 VOLUME and BASIS-vectors are now :
 -----------------------------------------------------------------------------
  energy-cutoff  :      400.00
  volume of cell :      157.33
      direct lattice vectors                 reciprocal lattice vectors
     2.566797733  0.000000000  0.000000000     0.389590495 -0.224930177  0.000000000
     1.283398867  2.222912043  0.000000000     0.000000000  0.449860355  0.000000000
     0.000000000  0.000000000 27.574689230     0.000000000  0.000000000  0.036265141

  length of vectors
     2.566797733  2.566797733 27.574689230     0.449860355  0.449860355  0.036265141


 FORCES acting on ions
    electron-ion (+dipol)            ewald-force                    non-local-force                 convergence-correction
 -----------------------------------------------------------------------------------------------
   -.408E-05 -.235E-05 0.551E+04   0.797E-08 -.251E-08 -.551E+04   0.347E-17 0.694E-17 -.279E+01   -.743E-08 -.429E-08 0.426E-01
   0.759E-05 0.561E-05 0.372E+04   -.232E-07 -.439E-09 -.372E+04   0.694E-17 -.139E-16 0.128E+01   -.132E-08 -.825E-09 0.293E+00
   -.958E-05 -.525E-05 0.187E+04   0.249E-07 0.100E-07 -.187E+04   0.694E-17 -.347E-17 -.143E+00   0.406E-06 0.235E-06 0.487E+00
   -.242E-06 -.140E-06 0.103E+02   -.510E-10 -.101E-07 -.108E+02   -.542E-19 -.108E-18 -.889E-01   0.181E-05 0.105E-05 0.620E+00
   0.107E-04 0.741E-05 -.185E+04   -.246E-07 0.108E-09 0.185E+04   -.347E-17 0.347E-17 0.330E+00   -.191E-05 -.110E-05 0.233E+00
   -.627E-05 -.334E-05 -.370E+04   0.253E-07 0.105E-07 0.370E+04   0.139E-16 0.139E-16 -.167E+01   0.231E-06 0.133E-06 0.238E+00
   0.650E-05 0.375E-05 -.557E+04   -.103E-07 -.764E-08 0.557E+04   0.000E+00 0.000E+00 0.316E+01   -.967E-07 -.559E-07 -.201E-01
 -----------------------------------------------------------------------------------------------
   0.463E-05 0.569E-05 -.195E+01   0.620E-13 -.181E-13 0.000E+00   0.277E-16 0.683E-17 0.749E-01   0.435E-06 0.251E-06 0.189E+01
 
 
 POSITION                                       TOTAL-FORCE (eV/Angst)
 -----------------------------------------------------------------------------------
      0.00000      0.00000      0.00000         0.000000     -0.000000      0.473423
      1.28340      0.74097      2.09578        -0.000000     -0.000000     -0.463048
      2.56680      1.48194      4.13209        -0.000000     -0.000000      0.006792
      0.00000     -0.00000      6.16014         0.000000      0.000000     -0.003816
      1.28340      0.74097      8.19017        -0.000000     -0.000000      0.015798
      2.56680      1.48194     10.23334        -0.000000      0.000000     -0.023202
      0.00000     -0.00000     12.23236         0.000000      0.000000     -0.005946
 -----------------------------------------------------------------------------------
    total drift:                                0.000005      0.000006      0.022853


--------------------------------------------------------------------------------------------------------



  FREE ENERGIE OF THE ION-ELECTRON SYSTEM (eV)
  ---------------------------------------------------
  free  energy   TOTEN  =       -29.54326361 eV

  energy  without entropy=      -29.54313476  energy(sigma->0) =      -29.54322066
 
 d Force = 0.1279320E-03[-0.624E-04, 0.318E-03]  d Energy = 0.1581715E-03-0.302E-04
 d Force =-0.9065804E+01[-0.907E+01,-0.906E+01]  d Ewald  =-0.9065806E+01 0.195E-05


--------------------------------------------------------------------------------------------------------


    POTLOK:  cpu time      0.0255: real time      0.0256


--------------------------------------------------------------------------------------------------------


 stress matrix after NEB project (eV)
     -5.23311     -0.00000     -0.00000
     -0.00000     -5.23311      0.00000
     -0.00000      0.00000     -1.59729
  FORCES: max atom, RMS     0.023202    0.011237
  FORCE total and by dimension    0.029731    0.023202
  Stress total and by dimension    7.571146    5.233112
 Conjugate gradient step on ions:
 trial-energy change:   -0.000158  1 .order   -0.000128   -0.000318    0.000062
  (g-gl).g =-0.514E-04      g.g   = 0.245E-03  gl.gl    = 0.485E-02
 g(Force)  = 0.245E-03   g(Stress)= 0.000E+00 ortho     =-0.114E-04
 gamma     =  -0.01058
 trial     =   1.29688
 opt step  =   1.08432  (harmonic =   1.08432) maximal distance =0.00264224
 next E    =   -29.543238   (d E  =  -0.00013)


--------------------------------------------------------------------------------------------------------


  
 reached required accuracy - stopping structural energy minimisation
     LOOP+:  cpu time      0.9174: real time      0.9815
    4ORBIT:  cpu time      0.0000: real time      0.0000

 total amount of memory used by VASP MPI-rank0    33417. kBytes
=======================================================================

   base      :      30000. kBytes
   nonl-proj :        315. kBytes
   fftplans  :        666. kBytes
   grid      :       1606. kBytes
   one-center:         62. kBytes
   wavefun   :        768. kBytes
 
  
  
 General timing and accounting informations for this job:
 ========================================================
  
                  Total CPU time used (sec):       37.330
                            User time (sec):       36.984
                          System time (sec):        0.346
                         Elapsed time (sec):       38.994
  
                   Maximum memory used (kb):      222588.
                   Average memory used (kb):          N/A
  
                          Minor page faults:        83883
                          Major page faults:         6459
                 Voluntary context switches:         2271
