       N       E                     dE             d eps       ncg     rms          rms(c)
DAV:   1     0.294242012836E+04    0.29424E+04   -0.11009E+05  2400   0.189E+03
DAV:   2     0.383474815879E+03   -0.25589E+04   -0.24502E+04  2400   0.439E+02
DAV:   3    -0.847076727365E+02   -0.46818E+03   -0.42428E+03  2400   0.224E+02
DAV:   4    -0.118959358892E+03   -0.34252E+02   -0.33004E+02  2608   0.846E+01
DAV:   5    -0.119746732345E+03   -0.78737E+00   -0.78543E+00  2656   0.126E+01    0.487E+01
DAV:   6    -0.100242310641E+03    0.19504E+02   -0.27348E+02  2624   0.124E+02    0.260E+01
DAV:   7    -0.857884986286E+02    0.14454E+02   -0.61135E+01  2632   0.788E+01    0.130E+01
DAV:   8    -0.873400104635E+02   -0.15515E+01   -0.27232E+01  2808   0.103E+02    0.156E+01
DAV:   9    -0.830495765422E+02    0.42904E+01   -0.78771E+00  3296   0.441E+01    0.996E+00
DAV:  10    -0.847720112813E+02   -0.17224E+01   -0.23892E+00  3496   0.307E+01    0.974E+00
DAV:  11    -0.880758537151E+02   -0.33038E+01   -0.52905E+00  3096   0.325E+01    0.840E+00
DAV:  12    -0.899554447582E+02   -0.18796E+01   -0.11866E+01  3272   0.631E+01    0.950E+00
DAV:  13    -0.874280761805E+02    0.25274E+01   -0.10137E+01  3816   0.380E+01    0.644E+00
DAV:  14    -0.889097604095E+02   -0.14817E+01   -0.27384E+00  3112   0.202E+01    0.350E+00
DAV:  15    -0.913011879878E+02   -0.23914E+01   -0.31373E+00  2936   0.227E+01    0.341E+00
DAV:  16    -0.929346664143E+02   -0.16335E+01   -0.16194E+00  3136   0.158E+01    0.228E+00
DAV:  17    -0.945547996020E+02   -0.16201E+01   -0.12662E+00  3152   0.980E+00    0.150E+00
DAV:  18    -0.956689456920E+02   -0.11141E+01   -0.85099E-01  3016   0.744E+00    0.144E+00
DAV:  19    -0.963754602107E+02   -0.70651E+00   -0.54943E-01  3160   0.591E+00    0.112E+00
DAV:  20    -0.970491045441E+02   -0.67364E+00   -0.36817E-01  2624   0.180E+00    0.103E+00
DAV:  21    -0.977009230534E+02   -0.65182E+00   -0.24758E-01  2904   0.424E+00    0.755E-01
DAV:  22    -0.983259380070E+02   -0.62501E+00   -0.18043E-01  3208   0.196E+00    0.661E-01
DAV:  23    -0.986714987701E+02   -0.34556E+00   -0.99607E-02  3416   0.362E+00    0.539E-01
DAV:  24    -0.991744090312E+02   -0.50291E+00   -0.54961E-02  3440   0.278E+00    0.357E-01
DAV:  25    -0.996794315391E+02   -0.50502E+00   -0.24204E-02  2976   0.178E+00    0.279E-01
DAV:  26    -0.998603870266E+02   -0.18096E+00   -0.56676E-03  2816   0.108E+00    0.206E-01
DAV:  27    -0.998926385625E+02   -0.32252E-01   -0.25831E-03  2720   0.906E-01    0.138E-01
DAV:  28    -0.999024530395E+02   -0.98145E-02   -0.17802E-03  2648   0.500E-01    0.573E-02
DAV:  29    -0.999109709065E+02   -0.85179E-02   -0.60266E-04  1944   0.184E-01    0.358E-02
DAV:  30    -0.999146451017E+02   -0.36742E-02   -0.59127E-04  2008   0.169E-01    0.337E-02
DAV:  31    -0.999148297877E+02   -0.18469E-03   -0.20400E-04  1560   0.172E-01
   1 F= -.11131963E+03 E0= -.11131105E+03  d E =-.111320E+03  mag=    -0.0049
       N       E                     dE             d eps       ncg     rms          rms(c)
DAV:   1    -0.999134449546E+02    0.12001E-02   -0.47254E+00  2600   0.497E+00    0.138E-01
DAV:   2    -0.999221234008E+02   -0.86784E-02   -0.88153E-02  3552   0.148E+00    0.208E-01
DAV:   3    -0.999227087249E+02   -0.58532E-03   -0.84861E-03  2672   0.160E+00    0.248E-01
DAV:   4    -0.999219658252E+02    0.74290E-03   -0.67730E-03  2504   0.132E+00    0.129E-01
DAV:   5    -0.999218104789E+02    0.15535E-03   -0.10806E-03  1488   0.501E-01
   2 F= -.11133420E+03 E0= -.11132534E+03  d E =-.145738E-01  mag=    -0.0039
       N       E                     dE             d eps       ncg     rms          rms(c)
DAV:   1    -0.999203425151E+02    0.16233E-02   -0.15223E+00  2616   0.289E+00    0.108E-01
DAV:   2    -0.999233961986E+02   -0.30537E-02   -0.30916E-02  3776   0.137E+00    0.179E-01
DAV:   3    -0.999236866568E+02   -0.29046E-03   -0.10467E-02  2712   0.164E+00    0.206E-01
DAV:   4    -0.999230359041E+02    0.65075E-03   -0.29560E-03  2376   0.935E-01    0.849E-02
DAV:   5    -0.999230359453E+02   -0.41204E-07   -0.61909E-04  1712   0.421E-01
   3 F= -.11133972E+03 E0= -.11133055E+03  d E =-.200899E-01  mag=    -0.0033
       N       E                     dE             d eps       ncg     rms          rms(c)
DAV:   1    -0.999099166820E+02    0.13119E-01   -0.60410E+00  2592   0.564E+00    0.178E-01
DAV:   2    -0.999210822552E+02   -0.11166E-01   -0.11379E-01  3568   0.184E+00    0.275E-01
DAV:   3    -0.999214668917E+02   -0.38464E-03   -0.14755E-02  2648   0.200E+00    0.287E-01
DAV:   4    -0.999206869245E+02    0.77997E-03   -0.78416E-03  2568   0.147E+00    0.177E-01
DAV:   5    -0.999204974592E+02    0.18947E-03   -0.15833E-03  2080   0.738E-01
   4 F= -.11134571E+03 E0= -.11133611E+03  d E =-.260867E-01  mag=    -0.0028
       N       E                     dE             d eps       ncg     rms          rms(c)
DAV:   1    -0.999116217829E+02    0.90651E-02   -0.62156E+00  2640   0.570E+00    0.213E-01
DAV:   2    -0.999229292031E+02   -0.11307E-01   -0.10587E-01  4024   0.271E+00    0.386E-01
DAV:   3    -0.999219030288E+02    0.10262E-02   -0.18191E-02  2904   0.262E+00    0.269E-01
DAV:   4    -0.999215518689E+02    0.35116E-03   -0.10822E-02  2640   0.161E+00    0.231E-01
DAV:   5    -0.999210809612E+02    0.47091E-03   -0.37869E-03  2496   0.103E+00    0.153E-01
DAV:   6    -0.999208574542E+02    0.22351E-03   -0.14624E-03  2456   0.561E-01    0.117E-01
DAV:   7    -0.999207490020E+02    0.10845E-03   -0.17601E-03  2992   0.630E-01
   5 F= -.11135689E+03 E0= -.11134731E+03  d E =-.111730E-01  mag=    -0.0019
       N       E                     dE             d eps       ncg     rms          rms(c)
DAV:   1    -0.998191889284E+02    0.10167E+00   -0.56276E+01  2608   0.173E+01    0.615E-01
DAV:   2    -0.999421388190E+02   -0.12295E+00   -0.11895E+00  3888   0.879E+00    0.124E+00
DAV:   3    -0.999479992171E+02   -0.58604E-02   -0.30831E-01  4120   0.940E+00    0.104E+00
DAV:   4    -0.999213812766E+02    0.26618E-01   -0.10359E-01  3328   0.535E+00    0.531E-01
DAV:   5    -0.999190735766E+02    0.23077E-02   -0.13861E-02  3024   0.217E+00    0.445E-01
DAV:   6    -0.999185509002E+02    0.52268E-03   -0.11561E-02  2640   0.145E+00    0.397E-01
DAV:   7    -0.999165763045E+02    0.19746E-02   -0.15745E-02  2768   0.178E+00    0.203E-01
DAV:   8    -0.999164863274E+02    0.89977E-04   -0.78013E-03  3928   0.128E+00    0.128E-01
DAV:   9    -0.999162322561E+02    0.25407E-03   -0.11291E-03  2408   0.860E-01    0.577E-02
DAV:  10    -0.999162301222E+02    0.21338E-05   -0.49759E-04  1728   0.299E-01
   6 F= -.11138530E+03 E0= -.11137583E+03  d E =-.395910E-01  mag=    -0.0012
       N       E                     dE             d eps       ncg     rms          rms(c)
DAV:   1    -0.994524066812E+02    0.46383E+00   -0.23245E+02  2672   0.369E+01    0.135E+00
DAV:   2    -0.100017765405E+03   -0.56536E+00   -0.53925E+00  3936   0.205E+01    0.284E+00
DAV:   3    -0.100018058204E+03   -0.29280E-03   -0.12843E+00  4024   0.204E+01    0.205E+00
DAV:   4    -0.998980673664E+02    0.11999E+00   -0.51235E-01  3488   0.109E+01    0.108E+00
DAV:   5    -0.998873934846E+02    0.10674E-01   -0.76584E-02  3112   0.477E+00    0.904E-01
DAV:   6    -0.998857150866E+02    0.16784E-02   -0.52969E-02  2720   0.267E+00    0.807E-01
DAV:   7    -0.998774505606E+02    0.82645E-02   -0.62116E-02  2680   0.336E+00    0.406E-01
DAV:   8    -0.998768056094E+02    0.64495E-03   -0.28714E-02  4136   0.241E+00    0.255E-01
DAV:   9    -0.998758204931E+02    0.98512E-03   -0.46450E-03  3040   0.178E+00    0.137E-01
DAV:  10    -0.998756610543E+02    0.15944E-03   -0.17334E-03  2568   0.770E-01
   7 F= -.11141152E+03 E0= -.11140270E+03  d E =-.658090E-01  mag=    -0.0008
       N       E                     dE             d eps       ncg     rms          rms(c)
DAV:   1    -0.998695691978E+02    0.62513E-02   -0.32019E+00  2640   0.410E+00    0.138E-01
DAV:   2    -0.998753108133E+02   -0.57416E-02   -0.56591E-02  3632   0.147E+00    0.197E-01
DAV:   3    -0.998762784184E+02   -0.96761E-03   -0.14946E-02  2560   0.204E+00    0.253E-01
DAV:   4    -0.998749616933E+02    0.13167E-02   -0.68501E-03  2288   0.131E+00    0.992E-02
DAV:   5    -0.998749343435E+02    0.27350E-04   -0.94758E-04  1920   0.549E-01
   8 F= -.11141891E+03 E0= -.11141016E+03  d E =-.738935E-02  mag=    -0.0006
       N       E                     dE             d eps       ncg     rms          rms(c)
DAV:   1    -0.998233734683E+02    0.51588E-01   -0.29004E+01  2608   0.124E+01    0.409E-01
DAV:   2    -0.998814094370E+02   -0.58036E-01   -0.55534E-01  3880   0.563E+00    0.840E-01
DAV:   3    -0.998787469249E+02    0.26625E-02   -0.11687E-01  3512   0.577E+00    0.579E-01
DAV:   4    -0.998725066898E+02    0.62402E-02   -0.40862E-02  2928   0.316E+00    0.402E-01
DAV:   5    -0.998716563965E+02    0.85029E-03   -0.81220E-03  2752   0.151E+00    0.338E-01
DAV:   6    -0.998705546906E+02    0.11017E-02   -0.77962E-03  2888   0.137E+00    0.276E-01
DAV:   7    -0.998702182995E+02    0.33639E-03   -0.95171E-03  2760   0.166E+00    0.173E-01
DAV:   8    -0.998698844824E+02    0.33382E-03   -0.49014E-03  3328   0.966E-01    0.844E-02
DAV:   9    -0.998697796970E+02    0.10479E-03   -0.53397E-04  1688   0.525E-01
   9 F= -.11143821E+03 E0= -.11142991E+03  d E =-.266921E-01  mag=    -0.0004
       N       E                     dE             d eps       ncg     rms          rms(c)
DAV:   1    -0.996414307010E+02    0.22845E+00   -0.11735E+02  2640   0.255E+01    0.857E-01
DAV:   2    -0.999014726059E+02   -0.26004E+00   -0.24839E+00  3920   0.127E+01    0.177E+00
DAV:   3    -0.998953131463E+02    0.61595E-02   -0.52398E-01  4024   0.127E+01    0.124E+00
DAV:   4    -0.998563999140E+02    0.38913E-01   -0.20780E-01  3120   0.709E+00    0.772E-01
DAV:   5    -0.998518895640E+02    0.45104E-02   -0.31862E-02  2944   0.311E+00    0.636E-01
DAV:   6    -0.998501227637E+02    0.17668E-02   -0.24193E-02  2704   0.211E+00    0.555E-01
DAV:   7    -0.998465475382E+02    0.35752E-02   -0.34907E-02  2880   0.276E+00    0.302E-01
DAV:   8    -0.998460624139E+02    0.48512E-03   -0.18149E-02  4000   0.189E+00    0.183E-01
DAV:   9    -0.998455755633E+02    0.48685E-03   -0.22273E-03  2608   0.125E+00    0.911E-02
DAV:  10    -0.998455148165E+02    0.60747E-04   -0.99514E-04  2344   0.475E-01
  10 F= -.11146337E+03 E0= -.11145599E+03  d E =-.518472E-01  mag=    -0.0003
       N       E                     dE             d eps       ncg     rms          rms(c)
DAV:   1    -0.989490307513E+02    0.89654E+00   -0.49726E+02  2888   0.575E+01    0.198E+00
DAV:   2    -0.100056216291E+03   -0.11072E+01   -0.10612E+01  3840   0.323E+01    0.420E+00
DAV:   3    -0.999526823054E+02    0.10353E+00   -0.25519E+00  3968   0.294E+01    0.240E+00
DAV:   4    -0.997690522429E+02    0.18363E+00   -0.10359E+00  3464   0.144E+01    0.147E+00
DAV:   5    -0.997563842075E+02    0.12668E-01   -0.21289E-01  2976   0.674E+00    0.130E+00
DAV:   6    -0.997538823219E+02    0.25019E-02   -0.14633E-01  2672   0.472E+00    0.108E+00
DAV:   7    -0.997431770215E+02    0.10705E-01   -0.12668E-01  2752   0.491E+00    0.630E-01
DAV:   8    -0.997383081612E+02    0.48689E-02   -0.81645E-02  4360   0.353E+00    0.357E-01
DAV:   9    -0.997366883222E+02    0.16198E-02   -0.83942E-03  2912   0.241E+00    0.228E-01
DAV:  10    -0.997362650531E+02    0.42327E-03   -0.48433E-03  2536   0.131E+00    0.118E-01
DAV:  11    -0.997363536232E+02   -0.88570E-04   -0.20510E-03  2440   0.559E-01    0.986E-02
DAV:  12    -0.997362634880E+02    0.90135E-04   -0.83542E-04  1888   0.382E-01
  11 F= -.11145506E+03 E0= -.11144988E+03  d E =-.435399E-01  mag=    -0.0002
       N       E                     dE             d eps       ncg     rms          rms(c)
DAV:   1    -0.994942492770E+02    0.24210E+00   -0.18044E+02  2688   0.324E+01    0.920E-01
DAV:   2    -0.998506851063E+02   -0.35644E+00   -0.36164E+00  3648   0.982E+00    0.148E+00
DAV:   3    -0.998651058648E+02   -0.14421E-01   -0.55362E-01  2896   0.109E+01    0.124E+00
DAV:   4    -0.998287549209E+02    0.36351E-01   -0.23315E-01  3264   0.681E+00    0.870E-01
DAV:   5    -0.998271684523E+02    0.15865E-02   -0.32357E-02  3720   0.352E+00    0.743E-01
DAV:   6    -0.998197965933E+02    0.73719E-02   -0.38007E-02  3696   0.285E+00    0.492E-01
DAV:   7    -0.998155537278E+02    0.42429E-02   -0.26094E-02  3856   0.275E+00    0.312E-01
DAV:   8    -0.998139978658E+02    0.15559E-02   -0.14056E-02  3144   0.182E+00    0.129E-01
DAV:   9    -0.998141802301E+02   -0.18236E-03   -0.40087E-03  2640   0.900E-01    0.107E-01
DAV:  10    -0.998141561506E+02    0.24079E-04   -0.16920E-03  2440   0.597E-01
  12 F= -.11147028E+03 E0= -.11146369E+03  d E =-.587584E-01  mag=    -0.0001
       N       E                     dE             d eps       ncg     rms          rms(c)
DAV:   1    -0.998000650517E+02    0.14115E-01   -0.86792E+00  2592   0.676E+00    0.197E-01
DAV:   2    -0.998237264614E+02   -0.23661E-01   -0.19145E-01  4328   0.439E+00    0.677E-01
DAV:   3    -0.998140809227E+02    0.96455E-02   -0.73789E-02  4024   0.398E+00    0.223E-01
DAV:   4    -0.998140599555E+02    0.20967E-04   -0.82635E-03  2600   0.102E+00    0.205E-01
DAV:   5    -0.998140896314E+02   -0.29676E-04   -0.27890E-03  2616   0.825E-01    0.187E-01
DAV:   6    -0.998136901879E+02    0.39944E-03   -0.36693E-03  3152   0.667E-01    0.149E-01
DAV:   7    -0.998135700590E+02    0.12013E-03   -0.13007E-03  2416   0.655E-01
  13 F= -.11147924E+03 E0= -.11147286E+03  d E =-.895523E-02  mag=    -0.0001
       N       E                     dE             d eps       ncg     rms          rms(c)
DAV:   1    -0.996726997184E+02    0.14099E+00   -0.78677E+01  2600   0.208E+01    0.710E-01
DAV:   2    -0.999461657417E+02   -0.27347E+00   -0.21720E+00  4520   0.167E+01    0.232E+00
DAV:   3    -0.998129841786E+02    0.13318E+00   -0.97749E-01  4528   0.142E+01    0.682E-01
DAV:   4    -0.998084379806E+02    0.45462E-02   -0.90094E-02  3120   0.347E+00    0.608E-01
DAV:   5    -0.998090622234E+02   -0.62424E-03   -0.33156E-02  2808   0.291E+00    0.552E-01
DAV:   6    -0.998056389623E+02    0.34233E-02   -0.34445E-02  2664   0.261E+00    0.406E-01
DAV:   7    -0.998047312776E+02    0.90768E-03   -0.13745E-02  3480   0.190E+00    0.310E-01
DAV:   8    -0.998033899912E+02    0.13413E-02   -0.69067E-03  3080   0.152E+00    0.777E-02
DAV:   9    -0.998033496217E+02    0.40370E-04   -0.19290E-03  2504   0.656E-01
  14 F= -.11149802E+03 E0= -.11149217E+03  d E =-.277412E-01  mag=    -0.0000
       N       E                     dE             d eps       ncg     rms          rms(c)
DAV:   1    -0.992389421246E+02    0.56445E+00   -0.32452E+02  2736   0.449E+01    0.139E+00
DAV:   2    -0.100200174905E+03   -0.96123E+00   -0.79171E+00  4464   0.318E+01    0.422E+00
DAV:   3    -0.997896350392E+02    0.41054E+00   -0.32448E+00  4424   0.251E+01    0.135E+00
DAV:   4    -0.997677173536E+02    0.21918E-01   -0.36467E-01  3128   0.716E+00    0.120E+00
DAV:   5    -0.997705844734E+02   -0.28671E-02   -0.14342E-01  2696   0.539E+00    0.109E+00
DAV:   6    -0.997606556151E+02    0.99289E-02   -0.99786E-02  2736   0.447E+00    0.806E-01
DAV:   7    -0.997536982920E+02    0.69573E-02   -0.52102E-02  3312   0.437E+00    0.524E-01
DAV:   8    -0.997499354295E+02    0.37629E-02   -0.38715E-02  4496   0.292E+00    0.172E-01
DAV:   9    -0.997491683218E+02    0.76711E-03   -0.86715E-03  3280   0.145E+00    0.134E-01
DAV:  10    -0.997491695070E+02   -0.11851E-05   -0.26225E-03  2480   0.641E-01    0.784E-02
DAV:  11    -0.997492244502E+02   -0.54943E-04   -0.12752E-03  2296   0.480E-01
  15 F= -.11150365E+03 E0= -.11149854E+03  d E =-.333688E-01  mag=    -0.0000
       N       E                     dE             d eps       ncg     rms          rms(c)
DAV:   1    -0.997023581921E+02    0.46811E-01   -0.44472E+01  2592   0.156E+01    0.428E-01
DAV:   2    -0.998112240992E+02   -0.10887E+00   -0.94016E-01  4344   0.810E+00    0.117E+00
DAV:   3    -0.997808174326E+02    0.30407E-01   -0.34431E-01  3664   0.787E+00    0.604E-01
DAV:   4    -0.997777361350E+02    0.30813E-02   -0.40118E-02  2952   0.300E+00    0.408E-01
DAV:   5    -0.997782219492E+02   -0.48581E-03   -0.21077E-02  2664   0.174E+00    0.390E-01
DAV:   6    -0.997769781061E+02    0.12438E-02   -0.91175E-03  2600   0.748E-01    0.256E-01
DAV:   7    -0.997757712110E+02    0.12069E-02   -0.83354E-03  3888   0.149E+00    0.225E-01
DAV:   8    -0.997752113770E+02    0.55983E-03   -0.25521E-03  2904   0.935E-01    0.157E-01
DAV:   9    -0.997749740672E+02    0.23731E-03   -0.15048E-03  2376   0.651E-01    0.821E-02
DAV:  10    -0.997749079022E+02    0.66165E-04   -0.79625E-04  2112   0.349E-01
  16 F= -.11150656E+03 E0= -.11150123E+03  d E =-.362752E-01  mag=    -0.0000
       N       E                     dE             d eps       ncg     rms          rms(c)
DAV:   1    -0.997539918214E+02    0.20982E-01   -0.12461E+01  2600   0.813E+00    0.247E-01
DAV:   2    -0.997896584033E+02   -0.35667E-01   -0.29894E-01  4424   0.549E+00    0.813E-01
DAV:   3    -0.997757147678E+02    0.13944E-01   -0.13193E-01  3936   0.505E+00    0.295E-01
DAV:   4    -0.997753716564E+02    0.34311E-03   -0.11120E-02  2712   0.141E+00    0.227E-01
DAV:   5    -0.997756065943E+02   -0.23494E-03   -0.59931E-03  2544   0.948E-01    0.221E-01
DAV:   6    -0.997751805459E+02    0.42605E-03   -0.32490E-03  2584   0.961E-01    0.185E-01
DAV:   7    -0.997748574696E+02    0.32308E-03   -0.38424E-03  3472   0.866E-01    0.907E-02
DAV:   8    -0.997747608944E+02    0.96575E-04   -0.47758E-04  1528   0.330E-01
  17 F= -.11151276E+03 E0= -.11150718E+03  d E =-.620619E-02  mag=    -0.0000
       N       E                     dE             d eps       ncg     rms          rms(c)
DAV:   1    -0.997724661841E+02    0.23913E-02   -0.56781E-01  2600   0.176E+00    0.780E-02
DAV:   2    -0.997757646470E+02   -0.32985E-02   -0.24043E-02  4176   0.206E+00    0.299E-01
DAV:   3    -0.997735496252E+02    0.22150E-02   -0.18647E-02  3600   0.201E+00    0.976E-02
DAV:   4    -0.997734154547E+02    0.13417E-03   -0.10467E-03  1536   0.674E-01
  18 F= -.11151279E+03 E0= -.11150710E+03  d E =-.623207E-02  mag=    -0.0000
       N       E                     dE             d eps       ncg     rms          rms(c)
DAV:   1    -0.997661677802E+02    0.73818E-02   -0.22691E+00  2600   0.349E+00    0.106E-01
DAV:   2    -0.997710968452E+02   -0.49291E-02   -0.46518E-02  4096   0.167E+00    0.254E-01
DAV:   3    -0.997700845810E+02    0.10123E-02   -0.10998E-02  3008   0.153E+00    0.129E-01
DAV:   4    -0.997700503849E+02    0.34196E-04   -0.16123E-03  2400   0.470E-01
  19 F= -.11151218E+03 E0= -.11150628E+03  d E =-.562446E-02  mag=    -0.0000
       N       E                     dE             d eps       ncg     rms          rms(c)
DAV:   1    -0.997702421603E+02   -0.15758E-03   -0.14830E+00  2600   0.282E+00    0.116E-01
DAV:   2    -0.997795688481E+02   -0.93267E-02   -0.63066E-02  4456   0.339E+00    0.499E-01
DAV:   3    -0.997728814365E+02    0.66874E-02   -0.45259E-02  4272   0.319E+00    0.106E-01
DAV:   4    -0.997729477354E+02   -0.66299E-04   -0.37779E-03  2848   0.112E+00    0.103E-01
DAV:   5    -0.997728619086E+02    0.85827E-04   -0.13809E-03  2384   0.570E-01
  20 F= -.11151276E+03 E0= -.11150696E+03  d E =-.620661E-02  mag=    -0.0000
       N       E                     dE             d eps       ncg     rms          rms(c)
DAV:   1    -0.997732055475E+02   -0.25781E-03   -0.27696E-02  2864   0.442E-01    0.313E-02
DAV:   2    -0.997732827916E+02   -0.77244E-04   -0.59350E-04  1488   0.410E-01
  21 F= -.11151288E+03 E0= -.11150717E+03  d E =-.632504E-02  mag=    -0.0000
       N       E                     dE             d eps       ncg     rms          rms(c)
DAV:   1    -0.997716036788E+02    0.16019E-02   -0.18196E+00  2608   0.316E+00    0.982E-02
DAV:   2    -0.997813591728E+02   -0.97555E-02   -0.64004E-02  4512   0.335E+00    0.481E-01
DAV:   3    -0.997747806448E+02    0.65785E-02   -0.43261E-02  4208   0.301E+00    0.125E-01
DAV:   4    -0.997748400264E+02   -0.59382E-04   -0.30445E-03  2880   0.697E-01    0.794E-02
DAV:   5    -0.997749067462E+02   -0.66720E-04   -0.13821E-03  2328   0.466E-01
  22 F= -.11151386E+03 E0= -.11150816E+03  d E =-.982382E-03  mag=    -0.0000
