unknown system                          
           1
     5.133595    0.000000    0.000000
     2.566798    4.445824    0.000000
     0.000000    0.000000   27.574690
   Cu
    28
Direct configuration=     1
   0.00000000  0.00000000  0.00000000
   0.00000000  0.50000000  0.00000000
   0.50000000  0.00000000  0.00000000
   0.50000000  0.50000000  0.00000000
   0.16666667  0.16666667  0.07600381
   0.16666667  0.66666667  0.07600381
   0.66666667  0.16666667  0.07600381
   0.66666667  0.66666667  0.07600381
   0.33333333  0.33333333  0.15200763
   0.33333333  0.83333333  0.15200763
   0.83333333  0.33333333  0.15200763
   0.83333333  0.83333333  0.15200763
   0.00000000  0.00000000  0.22801144
   0.00000000  0.50000000  0.22801144
   0.50000000  0.00000000  0.22801144
   0.50000000  0.50000000  0.22801144
   0.16666667  0.16666667  0.30401525
   0.16666667  0.66666667  0.30401525
   0.66666667  0.16666667  0.30401525
   0.66666667  0.66666667  0.30401525
   0.33333333  0.33333333  0.38001907
   0.33333333  0.83333333  0.38001907
   0.83333333  0.33333333  0.38001907
   0.83333333  0.83333333  0.38001907
   0.00000000  0.00000000  0.45602288
   0.00000000  0.50000000  0.45602288
   0.50000000  0.00000000  0.45602288
   0.50000000  0.50000000  0.45602288
Direct configuration=     2
   0.00000000  0.00000000  0.00000000
   0.00000000  0.50000000  0.00000000
   0.50000000  0.00000000  0.00000000
   0.50000000  0.50000000  0.00000000
   0.16666667  0.16666667  0.07600381
   0.16666667  0.66666667  0.07600381
   0.66666667  0.16666667  0.07600381
   0.66666667  0.66666667  0.07600381
   0.33333333  0.33333333  0.15186069
   0.33333333  0.83333333  0.15186069
   0.83333333  0.33333333  0.15186069
   0.83333333  0.83333333  0.15186069
  -0.00000000 -0.00000000  0.22801525
   0.00000000  0.50000000  0.22801525
   0.50000000 -0.00000000  0.22801525
   0.50000000  0.50000000  0.22801525
   0.16666667  0.16666667  0.30415389
   0.16666667  0.66666667  0.30415389
   0.66666667  0.16666667  0.30415389
   0.66666667  0.66666667  0.30415389
   0.33333333  0.33333333  0.37956320
   0.33333333  0.83333333  0.37956320
   0.83333333  0.33333333  0.37956320
   0.83333333  0.83333333  0.37956320
   0.00000000 -0.00000000  0.45586303
   0.00000000  0.50000000  0.45586303
   0.50000000 -0.00000000  0.45586303
   0.50000000  0.50000000  0.45586303
Direct configuration=     3
   0.00000000  0.00000000  0.00000000
   0.00000000  0.50000000  0.00000000
   0.50000000  0.00000000  0.00000000
   0.50000000  0.50000000  0.00000000
   0.16666667  0.16666667  0.07600381
   0.16666667  0.66666667  0.07600381
   0.66666667  0.16666667  0.07600381
   0.66666667  0.66666667  0.07600381
   0.33333333  0.33333333  0.15177774
   0.33333333  0.83333333  0.15177774
   0.83333333  0.33333333  0.15177774
   0.83333333  0.83333333  0.15177774
  -0.00000000 -0.00000000  0.22801740
   0.00000000  0.50000000  0.22801740
   0.50000000 -0.00000000  0.22801740
   0.50000000  0.50000000  0.22801740
   0.16666667  0.16666667  0.30423216
   0.16666667  0.66666667  0.30423216
   0.66666667  0.16666667  0.30423216
   0.66666667  0.66666667  0.30423216
   0.33333333  0.33333333  0.37930582
   0.33333333  0.83333333  0.37930582
   0.83333333  0.33333333  0.37930582
   0.83333333  0.83333333  0.37930582
   0.00000000 -0.00000000  0.45577278
   0.00000000  0.50000000  0.45577278
   0.50000000 -0.00000000  0.45577278
   0.50000000  0.50000000  0.45577278
Direct configuration=     4
   0.00000000  0.00000000  0.00000000
   0.00000000  0.50000000  0.00000000
   0.50000000  0.00000000  0.00000000
   0.50000000  0.50000000  0.00000000
   0.16666667  0.16666667  0.07600381
   0.16666667  0.66666667  0.07600381
   0.66666667  0.16666667  0.07600381
   0.66666667  0.66666667  0.07600381
   0.33333333  0.33333333  0.15161182
   0.33333333  0.83333333  0.15161182
   0.83333333  0.33333333  0.15161182
   0.83333333  0.83333333  0.15161182
  -0.00000000 -0.00000000  0.22802170
   0.00000000  0.50000000  0.22802170
   0.50000000 -0.00000000  0.22802170
   0.50000000  0.50000000  0.22802170
   0.16666667  0.16666667  0.30438871
   0.16666667  0.66666667  0.30438871
   0.66666667  0.16666667  0.30438871
   0.66666667  0.66666667  0.30438871
   0.33333333  0.33333333  0.37879107
   0.33333333  0.83333333  0.37879107
   0.83333333  0.33333333  0.37879107
   0.83333333  0.83333333  0.37879107
   0.00000000 -0.00000000  0.45559228
   0.00000000  0.50000000  0.45559228
   0.50000000 -0.00000000  0.45559228
   0.50000000  0.50000000  0.45559228
Direct configuration=     5
   0.00000000  0.00000000  0.00000000
   0.00000000  0.50000000  0.00000000
   0.50000000  0.00000000  0.00000000
   0.50000000  0.50000000  0.00000000
   0.16666667  0.16666667  0.07600381
   0.16666667  0.66666667  0.07600381
   0.66666667  0.16666667  0.07600381
   0.66666667  0.66666667  0.07600381
   0.33333333  0.33333333  0.15152779
   0.33333333  0.83333333  0.15152779
   0.83333333  0.33333333  0.15152779
   0.83333333  0.83333333  0.15152779
   0.00000000 -0.00000000  0.22800787
   0.00000000  0.50000000  0.22800787
   0.50000000 -0.00000000  0.22800787
   0.50000000  0.50000000  0.22800787
   0.16666667  0.16666667  0.30414307
   0.16666667  0.66666667  0.30414307
   0.66666667  0.16666667  0.30414307
   0.66666667  0.66666667  0.30414307
   0.33333333  0.33333333  0.37850812
   0.33333333  0.83333333  0.37850812
   0.83333333  0.33333333  0.37850812
   0.83333333  0.83333333  0.37850812
   0.00000000 -0.00000000  0.45512953
   0.00000000  0.50000000  0.45512953
   0.50000000 -0.00000000  0.45512953
   0.50000000  0.50000000  0.45512953
Direct configuration=     6
   0.00000000  0.00000000  0.00000000
   0.00000000  0.50000000  0.00000000
   0.50000000  0.00000000  0.00000000
   0.50000000  0.50000000  0.00000000
   0.16666667  0.16666667  0.07600381
   0.16666667  0.66666667  0.07600381
   0.66666667  0.16666667  0.07600381
   0.66666667  0.66666667  0.07600381
   0.33333333  0.33333333  0.15127569
   0.33333333  0.83333333  0.15127569
   0.83333333  0.33333333  0.15127569
   0.83333333  0.83333333  0.15127569
   0.00000000 -0.00000000  0.22796638
   0.00000000  0.50000000  0.22796638
   0.50000000 -0.00000000  0.22796638
   0.50000000  0.50000000  0.22796638
   0.16666667  0.16666667  0.30340616
   0.16666667  0.66666667  0.30340616
   0.66666667  0.16666667  0.30340616
   0.66666667  0.66666667  0.30340616
   0.33333333  0.33333333  0.37765925
   0.33333333  0.83333333  0.37765925
   0.83333333  0.33333333  0.37765925
   0.83333333  0.83333333  0.37765925
   0.00000000 -0.00000000  0.45374127
   0.00000000  0.50000000  0.45374127
   0.50000000 -0.00000000  0.45374127
   0.50000000  0.50000000  0.45374127
Direct configuration=     7
   0.00000000  0.00000000  0.00000000
   0.00000000  0.50000000  0.00000000
   0.50000000  0.00000000  0.00000000
   0.50000000  0.50000000  0.00000000
   0.16666667  0.16666667  0.07600381
   0.16666667  0.66666667  0.07600381
   0.66666667  0.16666667  0.07600381
   0.66666667  0.66666667  0.07600381
   0.33333333  0.33333333  0.15077149
   0.33333333  0.83333333  0.15077149
   0.83333333  0.33333333  0.15077149
   0.83333333  0.83333333  0.15077149
   0.00000000 -0.00000000  0.22788338
   0.00000000  0.50000000  0.22788338
   0.50000000 -0.00000000  0.22788338
   0.50000000  0.50000000  0.22788338
   0.16666667  0.16666667  0.30193235
   0.16666667  0.66666667  0.30193235
   0.66666667  0.16666667  0.30193235
   0.66666667  0.66666667  0.30193235
   0.33333333  0.33333333  0.37596153
   0.33333333  0.83333333  0.37596153
   0.83333333  0.33333333  0.37596153
   0.83333333  0.83333333  0.37596153
   0.00000000 -0.00000000  0.45096476
   0.00000000  0.50000000  0.45096476
   0.50000000 -0.00000000  0.45096476
   0.50000000  0.50000000  0.45096476
Direct configuration=     8
   0.00000000  0.00000000  0.00000000
   0.00000000  0.50000000  0.00000000
   0.50000000  0.00000000  0.00000000
   0.50000000  0.50000000  0.00000000
   0.16666667  0.16666667  0.07600381
   0.16666667  0.66666667  0.07600381
   0.66666667  0.16666667  0.07600381
   0.66666667  0.66666667  0.07600381
   0.33333333  0.33333333  0.15078720
   0.33333333  0.83333333  0.15078720
   0.83333333  0.33333333  0.15078720
   0.83333333  0.83333333  0.15078720
   0.00000000 -0.00000000  0.22773369
   0.00000000  0.50000000  0.22773369
   0.50000000 -0.00000000  0.22773369
   0.50000000  0.50000000  0.22773369
   0.16666667  0.16666667  0.30179922
   0.16666667  0.66666667  0.30179922
   0.66666667  0.16666667  0.30179922
   0.66666667  0.66666667  0.30179922
   0.33333333  0.33333333  0.37572439
   0.33333333  0.83333333  0.37572439
   0.83333333  0.33333333  0.37572439
   0.83333333  0.83333333  0.37572439
   0.00000000 -0.00000000  0.45066262
   0.00000000  0.50000000  0.45066262
   0.50000000 -0.00000000  0.45066262
   0.50000000  0.50000000  0.45066262
Direct configuration=     9
   0.00000000  0.00000000  0.00000000
   0.00000000  0.50000000  0.00000000
   0.50000000  0.00000000  0.00000000
   0.50000000  0.50000000  0.00000000
   0.16666667  0.16666667  0.07600381
   0.16666667  0.66666667  0.07600381
   0.66666667  0.16666667  0.07600381
   0.66666667  0.66666667  0.07600381
   0.33333333  0.33333333  0.15083435
   0.33333333  0.83333333  0.15083435
   0.83333333  0.33333333  0.15083435
   0.83333333  0.83333333  0.15083435
   0.00000000 -0.00000000  0.22728463
   0.00000000  0.50000000  0.22728463
   0.50000000 -0.00000000  0.22728463
   0.50000000  0.50000000  0.22728463
   0.16666667  0.16666667  0.30139985
   0.16666667  0.66666667  0.30139985
   0.66666667  0.16666667  0.30139985
   0.66666667  0.66666667  0.30139985
   0.33333333  0.33333333  0.37501298
   0.33333333  0.83333333  0.37501298
   0.83333333  0.33333333  0.37501298
   0.83333333  0.83333333  0.37501298
   0.00000000 -0.00000000  0.44975619
   0.00000000  0.50000000  0.44975619
   0.50000000 -0.00000000  0.44975619
   0.50000000  0.50000000  0.44975619
Direct configuration=    10
   0.00000000  0.00000000  0.00000000
   0.00000000  0.50000000  0.00000000
   0.50000000  0.00000000  0.00000000
   0.50000000  0.50000000  0.00000000
   0.16666667  0.16666667  0.07600381
   0.16666667  0.66666667  0.07600381
   0.66666667  0.16666667  0.07600381
   0.66666667  0.66666667  0.07600381
   0.33333333  0.33333333  0.15092863
   0.33333333  0.83333333  0.15092863
   0.83333333  0.33333333  0.15092863
   0.83333333  0.83333333  0.15092863
   0.00000000 -0.00000000  0.22638650
   0.00000000  0.50000000  0.22638650
   0.50000000 -0.00000000  0.22638650
   0.50000000  0.50000000  0.22638650
   0.16666667  0.16666667  0.30060111
   0.16666667  0.66666667  0.30060111
   0.66666667  0.16666667  0.30060111
   0.66666667  0.66666667  0.30060111
   0.33333333  0.33333333  0.37359015
   0.33333333  0.83333333  0.37359015
   0.83333333  0.33333333  0.37359015
   0.83333333  0.83333333  0.37359015
   0.00000000 -0.00000000  0.44794334
   0.00000000  0.50000000  0.44794334
   0.50000000 -0.00000000  0.44794334
   0.50000000  0.50000000  0.44794334
Direct configuration=    11
   0.00000000  0.00000000  0.00000000
   0.00000000  0.50000000  0.00000000
   0.50000000  0.00000000  0.00000000
   0.50000000  0.50000000  0.00000000
   0.16666667  0.16666667  0.07600381
   0.16666667  0.66666667  0.07600381
   0.66666667  0.16666667  0.07600381
   0.66666667  0.66666667  0.07600381
   0.33333333  0.33333333  0.15111721
   0.33333333  0.83333333  0.15111721
   0.83333333  0.33333333  0.15111721
   0.83333333  0.83333333  0.15111721
   0.00000000 -0.00000000  0.22459025
   0.00000000  0.50000000  0.22459025
   0.50000000 -0.00000000  0.22459025
   0.50000000  0.50000000  0.22459025
   0.16666667  0.16666667  0.29900364
   0.16666667  0.66666667  0.29900364
   0.66666667  0.16666667  0.29900364
   0.66666667  0.66666667  0.29900364
   0.33333333  0.33333333  0.37074450
   0.33333333  0.83333333  0.37074450
   0.83333333  0.33333333  0.37074450
   0.83333333  0.83333333  0.37074450
   0.00000000 -0.00000000  0.44431763
   0.00000000  0.50000000  0.44431763
   0.50000000 -0.00000000  0.44431763
   0.50000000  0.50000000  0.44431763
Direct configuration=    12
   0.00000000  0.00000000  0.00000000
   0.00000000  0.50000000  0.00000000
   0.50000000  0.00000000  0.00000000
   0.50000000  0.50000000  0.00000000
   0.16666667  0.16666667  0.07600381
   0.16666667  0.66666667  0.07600381
   0.66666667  0.16666667  0.07600381
   0.66666667  0.66666667  0.07600381
   0.33333333  0.33333333  0.15100076
   0.33333333  0.83333333  0.15100076
   0.83333333  0.33333333  0.15100076
   0.83333333  0.83333333  0.15100076
   0.00000000 -0.00000000  0.22569950
   0.00000000  0.50000000  0.22569950
   0.50000000 -0.00000000  0.22569950
   0.50000000  0.50000000  0.22569950
   0.16666667  0.16666667  0.29999014
   0.16666667  0.66666667  0.29999014
   0.66666667  0.16666667  0.29999014
   0.66666667  0.66666667  0.29999014
   0.33333333  0.33333333  0.37250179
   0.33333333  0.83333333  0.37250179
   0.83333333  0.33333333  0.37250179
   0.83333333  0.83333333  0.37250179
   0.00000000 -0.00000000  0.44655664
   0.00000000  0.50000000  0.44655664
   0.50000000 -0.00000000  0.44655664
   0.50000000  0.50000000  0.44655664
Direct configuration=    13
   0.00000000  0.00000000  0.00000000
   0.00000000  0.50000000  0.00000000
   0.50000000  0.00000000  0.00000000
   0.50000000  0.50000000  0.00000000
   0.16666667  0.16666667  0.07600381
   0.16666667  0.66666667  0.07600381
   0.66666667  0.16666667  0.07600381
   0.66666667  0.66666667  0.07600381
   0.33333333  0.33333333  0.15086328
   0.33333333  0.83333333  0.15086328
   0.83333333  0.33333333  0.15086328
   0.83333333  0.83333333  0.15086328
   0.00000000 -0.00000000  0.22539575
   0.00000000  0.50000000  0.22539575
   0.50000000 -0.00000000  0.22539575
   0.50000000  0.50000000  0.22539575
   0.16666667  0.16666667  0.29953956
   0.16666667  0.66666667  0.29953956
   0.66666667  0.16666667  0.29953956
   0.66666667  0.66666667  0.29953956
   0.33333333  0.33333333  0.37213481
   0.33333333  0.83333333  0.37213481
   0.83333333  0.33333333  0.37213481
   0.83333333  0.83333333  0.37213481
   0.00000000 -0.00000000  0.44630345
   0.00000000  0.50000000  0.44630345
   0.50000000 -0.00000000  0.44630345
   0.50000000  0.50000000  0.44630345
Direct configuration=    14
   0.00000000  0.00000000  0.00000000
   0.00000000  0.50000000  0.00000000
   0.50000000  0.00000000  0.00000000
   0.50000000  0.50000000  0.00000000
   0.16666667  0.16666667  0.07600381
   0.16666667  0.66666667  0.07600381
   0.66666667  0.16666667  0.07600381
   0.66666667  0.66666667  0.07600381
   0.33333333  0.33333333  0.15045083
   0.33333333  0.83333333  0.15045083
   0.83333333  0.33333333  0.15045083
   0.83333333  0.83333333  0.15045083
  -0.00000000 -0.00000000  0.22448448
   0.00000000  0.50000000  0.22448448
   0.50000000 -0.00000000  0.22448448
   0.50000000  0.50000000  0.22448448
   0.16666667  0.16666667  0.29818781
   0.16666667  0.66666667  0.29818781
   0.66666667  0.16666667  0.29818781
   0.66666667  0.66666667  0.29818781
   0.33333333  0.33333333  0.37103387
   0.33333333  0.83333333  0.37103387
   0.83333333  0.33333333  0.37103387
   0.83333333  0.83333333  0.37103387
   0.00000000 -0.00000000  0.44554389
   0.00000000  0.50000000  0.44554389
   0.50000000 -0.00000000  0.44554389
   0.50000000  0.50000000  0.44554389
Direct configuration=    15
   0.00000000  0.00000000  0.00000000
   0.00000000  0.50000000  0.00000000
   0.50000000  0.00000000  0.00000000
   0.50000000  0.50000000  0.00000000
   0.16666667  0.16666667  0.07600381
   0.16666667  0.66666667  0.07600381
   0.66666667  0.16666667  0.07600381
   0.66666667  0.66666667  0.07600381
   0.33333333  0.33333333  0.14962594
   0.33333333  0.83333333  0.14962594
   0.83333333  0.33333333  0.14962594
   0.83333333  0.83333333  0.14962594
  -0.00000000 -0.00000000  0.22266194
   0.00000000  0.50000000  0.22266194
   0.50000000 -0.00000000  0.22266194
   0.50000000  0.50000000  0.22266194
   0.16666667  0.16666667  0.29548432
   0.16666667  0.66666667  0.29548432
   0.66666667  0.16666667  0.29548432
   0.66666667  0.66666667  0.29548432
   0.33333333  0.33333333  0.36883198
   0.33333333  0.83333333  0.36883198
   0.83333333  0.33333333  0.36883198
   0.83333333  0.83333333  0.36883198
   0.00000000 -0.00000000  0.44402476
   0.00000000  0.50000000  0.44402476
   0.50000000 -0.00000000  0.44402476
   0.50000000  0.50000000  0.44402476
Direct configuration=    16
   0.00000000  0.00000000  0.00000000
   0.00000000  0.50000000  0.00000000
   0.50000000  0.00000000  0.00000000
   0.50000000  0.50000000  0.00000000
   0.16666667  0.16666667  0.07600381
   0.16666667  0.66666667  0.07600381
   0.66666667  0.16666667  0.07600381
   0.66666667  0.66666667  0.07600381
   0.33333333  0.33333333  0.14993658
   0.33333333  0.83333333  0.14993658
   0.83333333  0.33333333  0.14993658
   0.83333333  0.83333333  0.14993658
  -0.00000000 -0.00000000  0.22334828
   0.00000000  0.50000000  0.22334828
   0.50000000 -0.00000000  0.22334828
   0.50000000  0.50000000  0.22334828
   0.16666667  0.16666667  0.29650242
   0.16666667  0.66666667  0.29650242
   0.66666667  0.16666667  0.29650242
   0.66666667  0.66666667  0.29650242
   0.33333333  0.33333333  0.36966119
   0.33333333  0.83333333  0.36966119
   0.83333333  0.33333333  0.36966119
   0.83333333  0.83333333  0.36966119
   0.00000000 -0.00000000  0.44459685
   0.00000000  0.50000000  0.44459685
   0.50000000 -0.00000000  0.44459685
   0.50000000  0.50000000  0.44459685
Direct configuration=    17
   0.00000000  0.00000000  0.00000000
   0.00000000  0.50000000  0.00000000
   0.50000000  0.00000000  0.00000000
   0.50000000  0.50000000  0.00000000
   0.16666667  0.16666667  0.07600381
   0.16666667  0.66666667  0.07600381
   0.66666667  0.16666667  0.07600381
   0.66666667  0.66666667  0.07600381
   0.33333333  0.33333333  0.14931390
   0.33333333  0.83333333  0.14931390
   0.83333333  0.33333333  0.14931390
   0.83333333  0.83333333  0.14931390
  -0.00000000 -0.00000000  0.22295357
   0.00000000  0.50000000  0.22295357
   0.50000000 -0.00000000  0.22295357
   0.50000000  0.50000000  0.22295357
   0.16666667  0.16666667  0.29637895
   0.16666667  0.66666667  0.29637895
   0.66666667  0.16666667  0.29637895
   0.66666667  0.66666667  0.29637895
   0.33333333  0.33333333  0.36928290
   0.33333333  0.83333333  0.36928290
   0.83333333  0.33333333  0.36928290
   0.83333333  0.83333333  0.36928290
   0.00000000 -0.00000000  0.44442233
   0.00000000  0.50000000  0.44442233
   0.50000000 -0.00000000  0.44442233
   0.50000000  0.50000000  0.44442233
Direct configuration=    18
   0.00000000  0.00000000  0.00000000
   0.00000000  0.50000000  0.00000000
   0.50000000  0.00000000  0.00000000
   0.50000000  0.50000000  0.00000000
   0.16666667  0.16666667  0.07600381
   0.16666667  0.66666667  0.07600381
   0.66666667  0.16666667  0.07600381
   0.66666667  0.66666667  0.07600381
   0.33333333  0.33333333  0.14918077
   0.33333333  0.83333333  0.14918077
   0.83333333  0.33333333  0.14918077
   0.83333333  0.83333333  0.14918077
  -0.00000000 -0.00000000  0.22286917
   0.00000000  0.50000000  0.22286917
   0.50000000 -0.00000000  0.22286917
   0.50000000  0.50000000  0.22286917
   0.16666667  0.16666667  0.29635255
   0.16666667  0.66666667  0.29635255
   0.66666667  0.16666667  0.29635255
   0.66666667  0.66666667  0.29635255
   0.33333333  0.33333333  0.36920202
   0.33333333  0.83333333  0.36920202
   0.83333333  0.33333333  0.36920202
   0.83333333  0.83333333  0.36920202
   0.00000000 -0.00000000  0.44438501
   0.00000000  0.50000000  0.44438501
   0.50000000 -0.00000000  0.44438501
   0.50000000  0.50000000  0.44438501
Direct configuration=    19
   0.00000000  0.00000000  0.00000000
   0.00000000  0.50000000  0.00000000
   0.50000000  0.00000000  0.00000000
   0.50000000  0.50000000  0.00000000
   0.16666667  0.16666667  0.07600381
   0.16666667  0.66666667  0.07600381
   0.66666667  0.16666667  0.07600381
   0.66666667  0.66666667  0.07600381
   0.33333333  0.33333333  0.14891449
   0.33333333  0.83333333  0.14891449
   0.83333333  0.33333333  0.14891449
   0.83333333  0.83333333  0.14891449
  -0.00000000 -0.00000000  0.22270038
   0.00000000  0.50000000  0.22270038
   0.50000000 -0.00000000  0.22270038
   0.50000000  0.50000000  0.22270038
   0.16666667  0.16666667  0.29629975
   0.16666667  0.66666667  0.29629975
   0.66666667  0.16666667  0.29629975
   0.66666667  0.66666667  0.29629975
   0.33333333  0.33333333  0.36904026
   0.33333333  0.83333333  0.36904026
   0.83333333  0.33333333  0.36904026
   0.83333333  0.83333333  0.36904026
   0.00000000 -0.00000000  0.44431038
   0.00000000  0.50000000  0.44431038
   0.50000000 -0.00000000  0.44431038
   0.50000000  0.50000000  0.44431038
Direct configuration=    20
   0.00000000  0.00000000  0.00000000
   0.00000000  0.50000000  0.00000000
   0.50000000  0.00000000  0.00000000
   0.50000000  0.50000000  0.00000000
   0.16666667  0.16666667  0.07600381
   0.16666667  0.66666667  0.07600381
   0.66666667  0.16666667  0.07600381
   0.66666667  0.66666667  0.07600381
   0.33333333  0.33333333  0.14912965
   0.33333333  0.83333333  0.14912965
   0.83333333  0.33333333  0.14912965
   0.83333333  0.83333333  0.14912965
  -0.00000000 -0.00000000  0.22283677
   0.00000000  0.50000000  0.22283677
   0.50000000 -0.00000000  0.22283677
   0.50000000  0.50000000  0.22283677
   0.16666667  0.16666667  0.29634241
   0.16666667  0.66666667  0.29634241
   0.66666667  0.16666667  0.29634241
   0.66666667  0.66666667  0.29634241
   0.33333333  0.33333333  0.36917097
   0.33333333  0.83333333  0.36917097
   0.83333333  0.33333333  0.36917097
   0.83333333  0.83333333  0.36917097
   0.00000000 -0.00000000  0.44437069
   0.00000000  0.50000000  0.44437069
   0.50000000 -0.00000000  0.44437069
   0.50000000  0.50000000  0.44437069
Direct configuration=    21
   0.00000000  0.00000000  0.00000000
   0.00000000  0.50000000  0.00000000
   0.50000000  0.00000000  0.00000000
   0.50000000  0.50000000  0.00000000
   0.16666667  0.16666667  0.07600381
   0.16666667  0.66666667  0.07600381
   0.66666667  0.16666667  0.07600381
   0.66666667  0.66666667  0.07600381
   0.33333333  0.33333333  0.14915885
   0.33333333  0.83333333  0.14915885
   0.83333333  0.33333333  0.14915885
   0.83333333  0.83333333  0.14915885
  -0.00000000 -0.00000000  0.22285528
   0.00000000  0.50000000  0.22285528
   0.50000000 -0.00000000  0.22285528
   0.50000000  0.50000000  0.22285528
   0.16666667  0.16666667  0.29634820
   0.16666667  0.66666667  0.29634820
   0.66666667  0.16666667  0.29634820
   0.66666667  0.66666667  0.29634820
   0.33333333  0.33333333  0.36918870
   0.33333333  0.83333333  0.36918870
   0.83333333  0.33333333  0.36918870
   0.83333333  0.83333333  0.36918870
   0.00000000 -0.00000000  0.44437887
   0.00000000  0.50000000  0.44437887
   0.50000000 -0.00000000  0.44437887
   0.50000000  0.50000000  0.44437887
Direct configuration=    22
   0.00000000  0.00000000  0.00000000
   0.00000000  0.50000000  0.00000000
   0.50000000  0.00000000  0.00000000
   0.50000000  0.50000000  0.00000000
   0.16666667  0.16666667  0.07600381
   0.16666667  0.66666667  0.07600381
   0.66666667  0.16666667  0.07600381
   0.66666667  0.66666667  0.07600381
   0.33333333  0.33333333  0.14900535
   0.33333333  0.83333333  0.14900535
   0.83333333  0.33333333  0.14900535
   0.83333333  0.83333333  0.14900535
  -0.00000000 -0.00000000  0.22263915
   0.00000000  0.50000000  0.22263915
   0.50000000 -0.00000000  0.22263915
   0.50000000  0.50000000  0.22263915
   0.16666667  0.16666667  0.29625848
   0.16666667  0.66666667  0.29625848
   0.66666667  0.16666667  0.29625848
   0.66666667  0.66666667  0.29625848
   0.33333333  0.33333333  0.36932597
   0.33333333  0.83333333  0.36932597
   0.83333333  0.33333333  0.36932597
   0.83333333  0.83333333  0.36932597
   0.00000000 -0.00000000  0.44428210
   0.00000000  0.50000000  0.44428210
   0.50000000 -0.00000000  0.44428210
   0.50000000  0.50000000  0.44428210
