  34  34   0   0
  0.2629040E+02  0.7260000E-09  0.5133596E-09  0.2398379E-08  0.5000000E-15
  1.000000000000000E-004
  CAR 
 unknown system                          
     11.84586068    -10.27575293  301      0.76227191      1.00000000
    -10.276  0.0000E+00  0.0000E+00  0.0000E+00  0.0000E+00
    -10.202  0.0000E+00  0.0000E+00  0.0000E+00  0.0000E+00
    -10.128  0.0000E+00  0.0000E+00  0.0000E+00  0.0000E+00
    -10.055  0.0000E+00  0.0000E+00  0.0000E+00  0.0000E+00
     -9.981  0.0000E+00  0.0000E+00  0.0000E+00  0.0000E+00
     -9.907 -0.5542E-31 -0.5542E-31 -0.4087E-32 -0.4087E-32
     -9.833 -0.1885E-28 -0.1885E-28 -0.1394E-29 -0.1394E-29
     -9.760 -0.4885E-26 -0.4885E-26 -0.3616E-27 -0.3616E-27
     -9.686 -0.9618E-24 -0.9618E-24 -0.7128E-25 -0.7128E-25
     -9.612 -0.1438E-21 -0.1438E-21 -0.1068E-22 -0.1068E-22
     -9.538 -0.1633E-19 -0.1633E-19 -0.1215E-20 -0.1215E-20
     -9.465 -0.1407E-17 -0.1407E-17 -0.1050E-18 -0.1050E-18
     -9.391 -0.8903E-16 -0.8903E-16 -0.6670E-17 -0.6670E-17
     -9.317 -0.4387E-14 -0.4387E-14 -0.3302E-15 -0.3302E-15
     -9.243 -0.1634E-12 -0.1634E-12 -0.1238E-13 -0.1238E-13
     -9.170 -0.4595E-11 -0.4595E-11 -0.3512E-12 -0.3512E-12
     -9.096 -0.9725E-10 -0.9725E-10 -0.7523E-11 -0.7523E-11
     -9.022 -0.1545E-08 -0.1545E-08 -0.1214E-09 -0.1214E-09
     -8.948 -0.1832E-07 -0.1832E-07 -0.1472E-08 -0.1472E-08
     -8.875 -0.1611E-06 -0.1611E-06 -0.1335E-07 -0.1335E-07
     -8.801 -0.1038E-05 -0.1038E-05 -0.8988E-07 -0.8988E-07
     -8.727 -0.4796E-05 -0.4796E-05 -0.4435E-06 -0.4435E-06
     -8.654 -0.1521E-04 -0.1521E-04 -0.1565E-05 -0.1565E-05
     -8.580 -0.2930E-04 -0.2930E-04 -0.3725E-05 -0.3725E-05
     -8.506 -0.1559E-04 -0.1559E-04 -0.4875E-05 -0.4875E-05
     -8.432  0.8747E-04  0.8747E-04  0.1575E-05  0.1575E-05
     -8.359  0.2943E-03  0.2943E-03  0.2327E-04  0.2327E-04
     -8.285  0.4825E-03  0.4825E-03  0.5885E-04  0.5885E-04
     -8.211  0.5012E-03  0.5012E-03  0.9581E-04  0.9581E-04
     -8.137  0.4268E-03  0.4268E-03  0.1273E-03  0.1273E-03
     -8.064  0.5285E-03  0.5285E-03  0.1663E-03  0.1663E-03
     -7.990  0.8513E-03  0.8513E-03  0.2290E-03  0.2290E-03
     -7.916  0.1060E-02  0.1060E-02  0.3072E-03  0.3072E-03
     -7.842  0.9215E-03  0.9215E-03  0.3752E-03  0.3752E-03
     -7.769  0.6953E-03  0.6953E-03  0.4264E-03  0.4264E-03
     -7.695  0.7333E-03  0.7333E-03  0.4805E-03  0.4805E-03
     -7.621  0.9128E-03  0.9128E-03  0.5478E-03  0.5478E-03
     -7.547  0.9207E-03  0.9207E-03  0.6157E-03  0.6157E-03
     -7.474  0.9484E-03  0.9484E-03  0.6857E-03  0.6857E-03
     -7.400  0.1486E-02  0.1486E-02  0.7952E-03  0.7952E-03
     -7.326  0.2353E-02  0.2353E-02  0.9687E-03  0.9687E-03
     -7.252  0.2675E-02  0.2675E-02  0.1166E-02  0.1166E-02
     -7.179  0.2163E-02  0.2163E-02  0.1325E-02  0.1325E-02
     -7.105  0.1635E-02  0.1635E-02  0.1446E-02  0.1446E-02
     -7.031  0.1763E-02  0.1763E-02  0.1576E-02  0.1576E-02
     -6.958  0.2072E-02  0.2072E-02  0.1729E-02  0.1729E-02
     -6.884  0.1810E-02  0.1810E-02  0.1862E-02  0.1862E-02
     -6.810  0.1130E-02  0.1130E-02  0.1946E-02  0.1946E-02
     -6.736  0.7092E-03  0.7092E-03  0.1998E-02  0.1998E-02
     -6.663  0.7453E-03  0.7453E-03  0.2053E-02  0.2053E-02
     -6.589  0.1084E-02  0.1084E-02  0.2133E-02  0.2133E-02
     -6.515  0.1904E-02  0.1904E-02  0.2273E-02  0.2273E-02
     -6.441  0.3286E-02  0.3286E-02  0.2515E-02  0.2515E-02
     -6.368  0.4353E-02  0.4353E-02  0.2836E-02  0.2836E-02
     -6.294  0.4048E-02  0.4048E-02  0.3135E-02  0.3135E-02
     -6.220  0.2657E-02  0.2657E-02  0.3331E-02  0.3331E-02
     -6.146  0.1434E-02  0.1434E-02  0.3437E-02  0.3437E-02
     -6.073  0.9858E-03  0.9858E-03  0.3509E-02  0.3509E-02
     -5.999  0.1015E-02  0.1015E-02  0.3584E-02  0.3584E-02
     -5.925  0.1184E-02  0.1184E-02  0.3671E-02  0.3671E-02
     -5.851  0.1469E-02  0.1469E-02  0.3780E-02  0.3780E-02
     -5.778  0.2170E-02  0.2170E-02  0.3940E-02  0.3940E-02
     -5.704  0.3801E-02  0.3801E-02  0.4220E-02  0.4220E-02
     -5.630  0.6280E-02  0.6280E-02  0.4683E-02  0.4683E-02
     -5.556  0.8360E-02  0.8360E-02  0.5300E-02  0.5300E-02
     -5.483  0.8659E-02  0.8659E-02  0.5938E-02  0.5938E-02
     -5.409  0.7027E-02  0.7027E-02  0.6456E-02  0.6456E-02
     -5.335  0.4562E-02  0.4562E-02  0.6793E-02  0.6793E-02
     -5.262  0.2821E-02  0.2821E-02  0.7001E-02  0.7001E-02
     -5.188  0.3009E-02  0.3009E-02  0.7222E-02  0.7222E-02
     -5.114  0.5168E-02  0.5168E-02  0.7604E-02  0.7604E-02
     -5.040  0.7872E-02  0.7872E-02  0.8184E-02  0.8184E-02
     -4.967  0.9212E-02  0.9212E-02  0.8863E-02  0.8863E-02
     -4.893  0.8395E-02  0.8395E-02  0.9482E-02  0.9482E-02
     -4.819  0.6066E-02  0.6066E-02  0.9930E-02  0.9930E-02
     -4.745  0.3300E-02  0.3300E-02  0.1017E-01  0.1017E-01
     -4.672  0.1039E-02  0.1039E-02  0.1025E-01  0.1025E-01
     -4.598  0.1778E-03  0.1778E-03  0.1026E-01  0.1026E-01
     -4.524  0.1362E-02  0.1362E-02  0.1036E-01  0.1036E-01
     -4.450  0.4471E-02  0.4471E-02  0.1069E-01  0.1069E-01
     -4.377  0.8355E-02  0.8355E-02  0.1131E-01  0.1131E-01
     -4.303  0.1126E-01  0.1126E-01  0.1214E-01  0.1214E-01
     -4.229  0.1213E-01  0.1213E-01  0.1303E-01  0.1303E-01
     -4.155  0.1175E-01  0.1175E-01  0.1390E-01  0.1390E-01
     -4.082  0.1224E-01  0.1224E-01  0.1480E-01  0.1480E-01
     -4.008  0.1478E-01  0.1478E-01  0.1589E-01  0.1589E-01
     -3.934  0.1818E-01  0.1818E-01  0.1723E-01  0.1723E-01
     -3.860  0.2041E-01  0.2041E-01  0.1874E-01  0.1874E-01
     -3.787  0.2142E-01  0.2142E-01  0.2032E-01  0.2032E-01
     -3.713  0.2274E-01  0.2274E-01  0.2200E-01  0.2200E-01
     -3.639  0.2462E-01  0.2462E-01  0.2381E-01  0.2381E-01
     -3.566  0.2598E-01  0.2598E-01  0.2573E-01  0.2573E-01
     -3.492  0.2745E-01  0.2745E-01  0.2775E-01  0.2775E-01
     -3.418  0.3131E-01  0.3131E-01  0.3006E-01  0.3006E-01
     -3.344  0.3755E-01  0.3755E-01  0.3283E-01  0.3283E-01
     -3.271  0.4244E-01  0.4244E-01  0.3596E-01  0.3596E-01
     -3.197  0.4286E-01  0.4286E-01  0.3912E-01  0.3912E-01
     -3.123  0.4014E-01  0.4014E-01  0.4208E-01  0.4208E-01
     -3.049  0.3750E-01  0.3750E-01  0.4484E-01  0.4484E-01
     -2.976  0.3577E-01  0.3577E-01  0.4748E-01  0.4748E-01
     -2.902  0.3451E-01  0.3451E-01  0.5003E-01  0.5003E-01
     -2.828  0.3517E-01  0.3517E-01  0.5262E-01  0.5262E-01
     -2.754  0.3986E-01  0.3986E-01  0.5556E-01  0.5556E-01
     -2.681  0.4748E-01  0.4748E-01  0.5906E-01  0.5906E-01
     -2.607  0.5410E-01  0.5410E-01  0.6305E-01  0.6305E-01
     -2.533  0.5703E-01  0.5703E-01  0.6725E-01  0.6725E-01
     -2.459  0.5723E-01  0.5723E-01  0.7147E-01  0.7147E-01
     -2.386  0.5793E-01  0.5793E-01  0.7574E-01  0.7574E-01
     -2.312  0.6165E-01  0.6165E-01  0.8029E-01  0.8029E-01
     -2.238  0.6835E-01  0.6835E-01  0.8533E-01  0.8533E-01
     -2.164  0.7556E-01  0.7556E-01  0.9090E-01  0.9090E-01
     -2.091  0.7987E-01  0.7987E-01  0.9679E-01  0.9679E-01
     -2.017  0.7899E-01  0.7899E-01  0.1026E+00  0.1026E+00
     -1.943  0.7357E-01  0.7357E-01  0.1080E+00  0.1080E+00
     -1.870  0.6668E-01  0.6668E-01  0.1130E+00  0.1130E+00
     -1.796  0.6111E-01  0.6111E-01  0.1175E+00  0.1175E+00
     -1.722  0.5797E-01  0.5797E-01  0.1217E+00  0.1217E+00
     -1.648  0.5764E-01  0.5764E-01  0.1260E+00  0.1260E+00
     -1.575  0.6061E-01  0.6061E-01  0.1305E+00  0.1305E+00
     -1.501  0.6624E-01  0.6624E-01  0.1353E+00  0.1353E+00
     -1.427  0.7148E-01  0.7148E-01  0.1406E+00  0.1406E+00
     -1.353  0.7387E-01  0.7387E-01  0.1461E+00  0.1461E+00
     -1.280  0.7488E-01  0.7488E-01  0.1516E+00  0.1516E+00
     -1.206  0.7709E-01  0.7709E-01  0.1573E+00  0.1573E+00
     -1.132  0.7983E-01  0.7983E-01  0.1632E+00  0.1632E+00
     -1.058  0.8191E-01  0.8191E-01  0.1692E+00  0.1692E+00
     -0.985  0.8607E-01  0.8607E-01  0.1755E+00  0.1755E+00
     -0.911  0.9500E-01  0.9500E-01  0.1825E+00  0.1825E+00
     -0.837  0.1043E+00  0.1043E+00  0.1902E+00  0.1902E+00
     -0.763  0.1038E+00  0.1038E+00  0.1979E+00  0.1979E+00
     -0.690  0.8769E-01  0.8769E-01  0.2044E+00  0.2044E+00
     -0.616  0.6052E-01  0.6052E-01  0.2088E+00  0.2088E+00
     -0.542  0.3382E-01  0.3382E-01  0.2113E+00  0.2113E+00
     -0.469  0.1644E-01  0.1644E-01  0.2125E+00  0.2125E+00
     -0.395  0.9355E-02  0.9355E-02  0.2132E+00  0.2132E+00
     -0.321  0.8242E-02  0.8242E-02  0.2138E+00  0.2138E+00
     -0.247  0.8364E-02  0.8364E-02  0.2144E+00  0.2144E+00
     -0.174  0.7113E-02  0.7113E-02  0.2150E+00  0.2150E+00
     -0.100  0.4380E-02  0.4380E-02  0.2153E+00  0.2153E+00
     -0.026  0.1647E-02  0.1647E-02  0.2154E+00  0.2154E+00
      0.048  0.4756E-03  0.4756E-03  0.2154E+00  0.2154E+00
      0.121  0.1403E-02  0.1403E-02  0.2155E+00  0.2155E+00
      0.195  0.3773E-02  0.3773E-02  0.2158E+00  0.2158E+00
      0.269  0.6316E-02  0.6316E-02  0.2163E+00  0.2163E+00
      0.343  0.8139E-02  0.8139E-02  0.2169E+00  0.2169E+00
      0.416  0.9408E-02  0.9408E-02  0.2176E+00  0.2176E+00
      0.490  0.1080E-01  0.1080E-01  0.2184E+00  0.2184E+00
      0.564  0.1206E-01  0.1206E-01  0.2193E+00  0.2193E+00
      0.638  0.1189E-01  0.1189E-01  0.2201E+00  0.2201E+00
      0.711  0.9792E-02  0.9792E-02  0.2209E+00  0.2209E+00
      0.785  0.7139E-02  0.7139E-02  0.2214E+00  0.2214E+00
      0.859  0.5569E-02  0.5569E-02  0.2218E+00  0.2218E+00
      0.933  0.5413E-02  0.5413E-02  0.2222E+00  0.2222E+00
      1.006  0.6084E-02  0.6084E-02  0.2227E+00  0.2227E+00
      1.080  0.6923E-02  0.6923E-02  0.2232E+00  0.2232E+00
      1.154  0.7194E-02  0.7194E-02  0.2237E+00  0.2237E+00
      1.227  0.6203E-02  0.6203E-02  0.2242E+00  0.2242E+00
      1.301  0.4184E-02  0.4184E-02  0.2245E+00  0.2245E+00
      1.375  0.2599E-02  0.2599E-02  0.2247E+00  0.2247E+00
      1.449  0.2911E-02  0.2911E-02  0.2249E+00  0.2249E+00
      1.522  0.4913E-02  0.4913E-02  0.2252E+00  0.2252E+00
      1.596  0.6661E-02  0.6661E-02  0.2257E+00  0.2257E+00
      1.670  0.6672E-02  0.6672E-02  0.2262E+00  0.2262E+00
      1.744  0.5791E-02  0.5791E-02  0.2266E+00  0.2266E+00
      1.817  0.5809E-02  0.5809E-02  0.2271E+00  0.2271E+00
      1.891  0.6848E-02  0.6848E-02  0.2276E+00  0.2276E+00
      1.965  0.7612E-02  0.7612E-02  0.2281E+00  0.2281E+00
      2.039  0.7602E-02  0.7602E-02  0.2287E+00  0.2287E+00
      2.112  0.7444E-02  0.7444E-02  0.2292E+00  0.2292E+00
      2.186  0.7439E-02  0.7439E-02  0.2298E+00  0.2298E+00
      2.260  0.7222E-02  0.7222E-02  0.2303E+00  0.2303E+00
      2.334  0.6703E-02  0.6703E-02  0.2308E+00  0.2308E+00
      2.407  0.6394E-02  0.6394E-02  0.2313E+00  0.2313E+00
      2.481  0.6594E-02  0.6594E-02  0.2318E+00  0.2318E+00
      2.555  0.6757E-02  0.6757E-02  0.2323E+00  0.2323E+00
      2.629  0.6142E-02  0.6142E-02  0.2327E+00  0.2327E+00
      2.702  0.4885E-02  0.4885E-02  0.2331E+00  0.2331E+00
      2.776  0.3890E-02  0.3890E-02  0.2334E+00  0.2334E+00
      2.850  0.4013E-02  0.4013E-02  0.2337E+00  0.2337E+00
      2.923  0.5580E-02  0.5580E-02  0.2341E+00  0.2341E+00
      2.997  0.7782E-02  0.7782E-02  0.2347E+00  0.2347E+00
      3.071  0.8620E-02  0.8620E-02  0.2353E+00  0.2353E+00
      3.145  0.6884E-02  0.6884E-02  0.2358E+00  0.2358E+00
      3.218  0.3990E-02  0.3990E-02  0.2361E+00  0.2361E+00
      3.292  0.2481E-02  0.2481E-02  0.2363E+00  0.2363E+00
      3.366  0.3226E-02  0.3226E-02  0.2365E+00  0.2365E+00
      3.440  0.5049E-02  0.5049E-02  0.2369E+00  0.2369E+00
      3.513  0.6352E-02  0.6352E-02  0.2374E+00  0.2374E+00
      3.587  0.6421E-02  0.6421E-02  0.2378E+00  0.2378E+00
      3.661  0.5746E-02  0.5746E-02  0.2383E+00  0.2383E+00
      3.735  0.5363E-02  0.5363E-02  0.2386E+00  0.2386E+00
      3.808  0.5668E-02  0.5668E-02  0.2391E+00  0.2391E+00
      3.882  0.6205E-02  0.6205E-02  0.2395E+00  0.2395E+00
      3.956  0.6489E-02  0.6489E-02  0.2400E+00  0.2400E+00
      4.030  0.6370E-02  0.6370E-02  0.2405E+00  0.2405E+00
      4.103  0.5833E-02  0.5833E-02  0.2409E+00  0.2409E+00
      4.177  0.4986E-02  0.4986E-02  0.2413E+00  0.2413E+00
      4.251  0.4210E-02  0.4210E-02  0.2416E+00  0.2416E+00
      4.325  0.4046E-02  0.4046E-02  0.2419E+00  0.2419E+00
      4.398  0.4531E-02  0.4531E-02  0.2422E+00  0.2422E+00
      4.472  0.4883E-02  0.4883E-02  0.2426E+00  0.2426E+00
      4.546  0.4636E-02  0.4636E-02  0.2429E+00  0.2429E+00
      4.619  0.4712E-02  0.4712E-02  0.2433E+00  0.2433E+00
      4.693  0.6191E-02  0.6191E-02  0.2437E+00  0.2437E+00
      4.767  0.8337E-02  0.8337E-02  0.2443E+00  0.2443E+00
      4.841  0.9125E-02  0.9125E-02  0.2450E+00  0.2450E+00
      4.914  0.7747E-02  0.7747E-02  0.2456E+00  0.2456E+00
      4.988  0.5458E-02  0.5458E-02  0.2460E+00  0.2460E+00
      5.062  0.3827E-02  0.3827E-02  0.2463E+00  0.2463E+00
      5.136  0.3361E-02  0.3361E-02  0.2465E+00  0.2465E+00
      5.209  0.4060E-02  0.4060E-02  0.2468E+00  0.2468E+00
      5.283  0.5851E-02  0.5851E-02  0.2472E+00  0.2472E+00
      5.357  0.7922E-02  0.7922E-02  0.2478E+00  0.2478E+00
      5.431  0.9103E-02  0.9103E-02  0.2485E+00  0.2485E+00
      5.504  0.9406E-02  0.9406E-02  0.2492E+00  0.2492E+00
      5.578  0.9593E-02  0.9593E-02  0.2499E+00  0.2499E+00
      5.652  0.9490E-02  0.9490E-02  0.2506E+00  0.2506E+00
      5.726  0.8680E-02  0.8680E-02  0.2512E+00  0.2512E+00
      5.799  0.8060E-02  0.8060E-02  0.2518E+00  0.2518E+00
      5.873  0.8825E-02  0.8825E-02  0.2525E+00  0.2525E+00
      5.947  0.1053E-01  0.1053E-01  0.2533E+00  0.2533E+00
      6.021  0.1151E-01  0.1151E-01  0.2541E+00  0.2541E+00
      6.094  0.1084E-01  0.1084E-01  0.2549E+00  0.2549E+00
      6.168  0.9123E-02  0.9123E-02  0.2556E+00  0.2556E+00
      6.242  0.7618E-02  0.7618E-02  0.2561E+00  0.2561E+00
      6.315  0.7262E-02  0.7262E-02  0.2567E+00  0.2567E+00
      6.389  0.8076E-02  0.8076E-02  0.2573E+00  0.2573E+00
      6.463  0.9275E-02  0.9275E-02  0.2580E+00  0.2580E+00
      6.537  0.9935E-02  0.9935E-02  0.2587E+00  0.2587E+00
      6.610  0.9662E-02  0.9663E-02  0.2594E+00  0.2594E+00
      6.684  0.8969E-02  0.8969E-02  0.2601E+00  0.2601E+00
      6.758  0.8818E-02  0.8818E-02  0.2607E+00  0.2607E+00
      6.832  0.9441E-02  0.9440E-02  0.2614E+00  0.2614E+00
      6.905  0.9972E-02  0.9971E-02  0.2621E+00  0.2621E+00
      6.979  0.9513E-02  0.9513E-02  0.2628E+00  0.2628E+00
      7.053  0.8189E-02  0.8189E-02  0.2634E+00  0.2634E+00
      7.127  0.6936E-02  0.6936E-02  0.2640E+00  0.2640E+00
      7.200  0.6669E-02  0.6670E-02  0.2645E+00  0.2645E+00
      7.274  0.7794E-02  0.7795E-02  0.2650E+00  0.2650E+00
      7.348  0.9818E-02  0.9818E-02  0.2658E+00  0.2658E+00
      7.422  0.1132E-01  0.1132E-01  0.2666E+00  0.2666E+00
      7.495  0.1114E-01  0.1114E-01  0.2674E+00  0.2674E+00
      7.569  0.9726E-02  0.9726E-02  0.2681E+00  0.2681E+00
      7.643  0.8607E-02  0.8607E-02  0.2688E+00  0.2688E+00
      7.716  0.8708E-02  0.8708E-02  0.2694E+00  0.2694E+00
      7.790  0.9840E-02  0.9840E-02  0.2701E+00  0.2701E+00
      7.864  0.1155E-01  0.1155E-01  0.2710E+00  0.2710E+00
      7.938  0.1323E-01  0.1323E-01  0.2720E+00  0.2720E+00
      8.011  0.1368E-01  0.1368E-01  0.2730E+00  0.2730E+00
      8.085  0.1224E-01  0.1224E-01  0.2739E+00  0.2739E+00
      8.159  0.1021E-01  0.1021E-01  0.2746E+00  0.2746E+00
      8.233  0.9402E-02  0.9402E-02  0.2753E+00  0.2753E+00
      8.306  0.9785E-02  0.9785E-02  0.2760E+00  0.2760E+00
      8.380  0.9997E-02  0.9998E-02  0.2768E+00  0.2768E+00
      8.454  0.9365E-02  0.9365E-02  0.2775E+00  0.2775E+00
      8.528  0.8440E-02  0.8440E-02  0.2781E+00  0.2781E+00
      8.601  0.8216E-02  0.8216E-02  0.2787E+00  0.2787E+00
      8.675  0.9240E-02  0.9240E-02  0.2794E+00  0.2794E+00
      8.749  0.1110E-01  0.1110E-01  0.2802E+00  0.2802E+00
      8.823  0.1270E-01  0.1270E-01  0.2811E+00  0.2811E+00
      8.896  0.1322E-01  0.1322E-01  0.2821E+00  0.2821E+00
      8.970  0.1264E-01  0.1264E-01  0.2830E+00  0.2830E+00
      9.044  0.1159E-01  0.1159E-01  0.2839E+00  0.2839E+00
      9.118  0.1061E-01  0.1061E-01  0.2847E+00  0.2847E+00
      9.191  0.9805E-02  0.9809E-02  0.2854E+00  0.2854E+00
      9.265  0.9028E-02  0.9041E-02  0.2861E+00  0.2861E+00
      9.339  0.8157E-02  0.8187E-02  0.2867E+00  0.2867E+00
      9.412  0.7213E-02  0.7266E-02  0.2872E+00  0.2872E+00
      9.486  0.6576E-02  0.6639E-02  0.2877E+00  0.2877E+00
      9.560  0.6573E-02  0.6605E-02  0.2882E+00  0.2882E+00
      9.634  0.6753E-02  0.6718E-02  0.2887E+00  0.2887E+00
      9.707  0.6324E-02  0.6247E-02  0.2891E+00  0.2891E+00
      9.781  0.5163E-02  0.5099E-02  0.2895E+00  0.2895E+00
      9.855  0.3698E-02  0.3673E-02  0.2898E+00  0.2898E+00
      9.929  0.2241E-02  0.2241E-02  0.2899E+00  0.2899E+00
     10.002  0.9810E-03  0.9860E-03  0.2900E+00  0.2900E+00
     10.076  0.1611E-03  0.1639E-03  0.2900E+00  0.2900E+00
     10.150 -0.1450E-03 -0.1442E-03  0.2900E+00  0.2900E+00
     10.224 -0.1406E-03 -0.1404E-03  0.2900E+00  0.2900E+00
     10.297 -0.6550E-04 -0.6548E-04  0.2900E+00  0.2900E+00
     10.371 -0.1986E-04 -0.1985E-04  0.2900E+00  0.2900E+00
     10.445 -0.4223E-05 -0.4223E-05  0.2900E+00  0.2900E+00
     10.519 -0.6500E-06 -0.6501E-06  0.2900E+00  0.2900E+00
     10.592 -0.7361E-07 -0.7363E-07  0.2900E+00  0.2900E+00
     10.666 -0.6193E-08 -0.6194E-08  0.2900E+00  0.2900E+00
     10.740 -0.3894E-09 -0.3895E-09  0.2900E+00  0.2900E+00
     10.814 -0.1839E-10 -0.1839E-10  0.2900E+00  0.2900E+00
     10.887 -0.6538E-12 -0.6540E-12  0.2900E+00  0.2900E+00
     10.961 -0.1755E-13 -0.1755E-13  0.2900E+00  0.2900E+00
     11.035 -0.3563E-15 -0.3563E-15  0.2900E+00  0.2900E+00
     11.108 -0.5019E-17 -0.5019E-17  0.2900E+00  0.2900E+00
     11.182  0.0000E+00  0.0000E+00  0.2900E+00  0.2900E+00
     11.256  0.0000E+00  0.0000E+00  0.2900E+00  0.2900E+00
     11.330  0.0000E+00  0.0000E+00  0.2900E+00  0.2900E+00
     11.403  0.0000E+00  0.0000E+00  0.2900E+00  0.2900E+00
     11.477  0.0000E+00  0.0000E+00  0.2900E+00  0.2900E+00
     11.551  0.0000E+00  0.0000E+00  0.2900E+00  0.2900E+00
     11.625  0.0000E+00  0.0000E+00  0.2900E+00  0.2900E+00
     11.698  0.0000E+00  0.0000E+00  0.2900E+00  0.2900E+00
     11.772  0.0000E+00  0.0000E+00  0.2900E+00  0.2900E+00
     11.846  0.0000E+00  0.0000E+00  0.2900E+00  0.2900E+00
