       N       E                     dE             d eps       ncg     rms          rms(c)
DAV:   1     0.327057999136E+04    0.32706E+04   -0.12734E+05  3712   0.172E+03
DAV:   2     0.384086123010E+03   -0.28865E+04   -0.27590E+04  3712   0.406E+02
DAV:   3    -0.999121370706E+02   -0.48400E+03   -0.43641E+03  3736   0.209E+02
DAV:   4    -0.133010000836E+03   -0.33098E+02   -0.32153E+02  4200   0.769E+01
DAV:   5    -0.133771552202E+03   -0.76155E+00   -0.75951E+00  4160   0.110E+01    0.520E+01
DAV:   6    -0.108485179409E+03    0.25286E+02   -0.31957E+02  4048   0.119E+02    0.262E+01
DAV:   7    -0.954568524828E+02    0.13028E+02   -0.81841E+01  4136   0.738E+01    0.135E+01
DAV:   8    -0.941441094745E+02    0.13127E+01   -0.20768E+01  4232   0.708E+01    0.134E+01
DAV:   9    -0.922343260220E+02    0.19098E+01   -0.69317E+00  5184   0.433E+01    0.103E+01
DAV:  10    -0.935568919150E+02   -0.13226E+01   -0.59552E+00  5584   0.502E+01    0.101E+01
DAV:  11    -0.935318611582E+02    0.25031E-01   -0.58034E+00  5896   0.412E+01    0.762E+00
DAV:  12    -0.957460785194E+02   -0.22142E+01   -0.31543E+00  4976   0.306E+01    0.638E+00
DAV:  13    -0.100455198324E+03   -0.47091E+01   -0.31822E+00  4648   0.204E+01    0.408E+00
DAV:  14    -0.106301894690E+03   -0.58467E+01   -0.36872E+00  4776   0.173E+01    0.296E+00
DAV:  15    -0.110344520844E+03   -0.40426E+01   -0.30961E+00  5216   0.151E+01    0.241E+00
DAV:  16    -0.113213015429E+03   -0.28685E+01   -0.30020E+00  4288   0.106E+01    0.131E+00
DAV:  17    -0.114801694446E+03   -0.15887E+01   -0.11730E+00  4128   0.498E+00    0.111E+00
DAV:  18    -0.115998471734E+03   -0.11968E+01   -0.69392E-01  4208   0.521E+00    0.885E-01
DAV:  19    -0.116611467920E+03   -0.61300E+00   -0.39371E-01  4688   0.341E+00    0.578E-01
DAV:  20    -0.117069476551E+03   -0.45801E+00   -0.16747E-01  4288   0.253E+00    0.487E-01
DAV:  21    -0.117201020615E+03   -0.13154E+00   -0.37712E-02  4280   0.147E+00    0.359E-01
DAV:  22    -0.117398774591E+03   -0.19775E+00   -0.30416E-02  4528   0.158E+00    0.315E-01
DAV:  23    -0.117609871173E+03   -0.21110E+00   -0.18202E-02  4760   0.111E+00    0.228E-01
DAV:  24    -0.117770213240E+03   -0.16034E+00   -0.11028E-02  5040   0.868E-01    0.188E-01
DAV:  25    -0.117935408508E+03   -0.16520E+00   -0.44805E-03  4752   0.686E-01    0.146E-01
DAV:  26    -0.118061040316E+03   -0.12563E+00   -0.40288E-03  4800   0.621E-01    0.975E-02
DAV:  27    -0.118139687465E+03   -0.78647E-01   -0.27639E-03  4720   0.388E-01    0.822E-02
DAV:  28    -0.118170723319E+03   -0.31036E-01   -0.78857E-04  3248   0.322E-01    0.366E-02
DAV:  29    -0.118177381687E+03   -0.66584E-02   -0.40116E-04  2752   0.193E-01    0.326E-02
DAV:  30    -0.118180430865E+03   -0.30492E-02   -0.26872E-04  2672   0.159E-01    0.236E-02
DAV:  31    -0.118181667343E+03   -0.12365E-02   -0.10754E-04  2536   0.750E-02    0.108E-02
DAV:  32    -0.118181940061E+03   -0.27272E-03   -0.49031E-05  2472   0.580E-02    0.125E-02
DAV:  33    -0.118182047190E+03   -0.10713E-03   -0.28341E-05  2440   0.563E-02
   1 F= -.13060663E+03 E0= -.13061860E+03  d E =-.130607E+03  mag=    -0.0005
       N       E                     dE             d eps       ncg     rms          rms(c)
DAV:   1    -0.118171240055E+03    0.10700E-01   -0.21618E+00  3864   0.279E+00    0.422E-01
DAV:   2    -0.118173151251E+03   -0.19112E-02   -0.50762E-02  5192   0.956E-01    0.290E-01
DAV:   3    -0.118173969325E+03   -0.81807E-03   -0.10365E-02  4472   0.220E+00    0.301E-01
DAV:   4    -0.118173075882E+03    0.89344E-03   -0.88272E-03  4584   0.253E+00    0.178E-01
DAV:   5    -0.118172201995E+03    0.87389E-03   -0.34026E-03  4952   0.149E+00    0.616E-02
DAV:   6    -0.118172162076E+03    0.39920E-04   -0.61937E-04  3080   0.440E-01
   2 F= -.13060516E+03 E0= -.13061733E+03  d E =0.146217E-02  mag=    -0.0003
       N       E                     dE             d eps       ncg     rms          rms(c)
DAV:   1    -0.118187605006E+03   -0.15403E-01   -0.62452E-01  3888   0.153E+00    0.215E-01
DAV:   2    -0.118188398204E+03   -0.79320E-03   -0.16675E-02  5112   0.408E-01    0.151E-01
DAV:   3    -0.118188203350E+03    0.19485E-03   -0.16607E-03  4216   0.689E-01
   3 F= -.13061509E+03 E0= -.13062716E+03  d E =-.846331E-02  mag=    -0.0002
       N       E                     dE             d eps       ncg     rms          rms(c)
DAV:   1    -0.118189551989E+03   -0.11538E-02   -0.17652E+00  4032   0.295E+00    0.125E-01
DAV:   2    -0.118195375429E+03   -0.58234E-02   -0.38595E-02  6664   0.258E+00    0.282E-01
DAV:   3    -0.118192780086E+03    0.25953E-02   -0.10777E-02  5096   0.227E+00    0.109E-01
DAV:   4    -0.118193032094E+03   -0.25201E-03   -0.37347E-03  3984   0.383E-01    0.752E-02
DAV:   5    -0.118193020697E+03    0.11397E-04   -0.35567E-04  2384   0.152E-01
   4 F= -.13062165E+03 E0= -.13063387E+03  d E =-.655850E-02  mag=    -0.0001
       N       E                     dE             d eps       ncg     rms          rms(c)
DAV:   1    -0.118185755057E+03    0.72770E-02   -0.56082E+00  3984   0.492E+00    0.214E-01
DAV:   2    -0.118196089250E+03   -0.10334E-01   -0.11151E-01  5264   0.160E+00    0.241E-01
DAV:   3    -0.118195971829E+03    0.11742E-03   -0.66778E-03  4024   0.120E+00    0.176E-01
DAV:   4    -0.118195889488E+03    0.82341E-04   -0.19020E-03  3928   0.935E-01
   5 F= -.13062738E+03 E0= -.13063985E+03  d E =-.122871E-01  mag=    -0.0001
       N       E                     dE             d eps       ncg     rms          rms(c)
DAV:   1    -0.118199154260E+03   -0.31824E-02   -0.60881E-01  4064   0.175E+00    0.233E-01
DAV:   2    -0.118201300421E+03   -0.21462E-02   -0.21022E-02  6328   0.183E+00    0.248E-01
DAV:   3    -0.118200215140E+03    0.10853E-02   -0.60180E-03  4440   0.200E+00    0.179E-01
DAV:   4    -0.118199867729E+03    0.34741E-03   -0.19269E-03  3984   0.104E+00    0.114E-01
DAV:   5    -0.118199801938E+03    0.65791E-04   -0.14318E-03  4176   0.741E-01
   6 F= -.13063082E+03 E0= -.13064348E+03  d E =-.344114E-02  mag=    -0.0000
       N       E                     dE             d eps       ncg     rms          rms(c)
DAV:   1    -0.118199893070E+03   -0.25341E-04   -0.12342E-02  5296   0.398E-01    0.404E-02
DAV:   2    -0.118199907774E+03   -0.14704E-04   -0.34109E-04  2632   0.326E-01
   7 F= -.13063094E+03 E0= -.13064357E+03  d E =-.356369E-02  mag=    -0.0000
       N       E                     dE             d eps       ncg     rms          rms(c)
DAV:   1    -0.118202608534E+03   -0.27155E-02   -0.22862E-01  3752   0.104E+00    0.737E-02
DAV:   2    -0.118203281979E+03   -0.67345E-03   -0.59538E-03  5336   0.720E-01    0.950E-02
DAV:   3    -0.118203140600E+03    0.14138E-03   -0.13415E-03  3408   0.712E-01
   8 F= -.13063473E+03 E0= -.13064727E+03  d E =-.378753E-02  mag=    -0.0000
       N       E                     dE             d eps       ncg     rms          rms(c)
DAV:   1    -0.118206673436E+03   -0.33915E-02   -0.20603E+00  3712   0.297E+00    0.260E-01
DAV:   2    -0.118211242954E+03   -0.45695E-02   -0.54571E-02  5144   0.985E-01    0.233E-01
DAV:   3    -0.118211311197E+03   -0.68243E-04   -0.41935E-03  4032   0.134E+00    0.202E-01
DAV:   4    -0.118211078594E+03    0.23260E-03   -0.33973E-03  3816   0.150E+00    0.135E-01
DAV:   5    -0.118210807294E+03    0.27130E-03   -0.18360E-03  2896   0.117E+00    0.869E-02
DAV:   6    -0.118210657561E+03    0.14973E-03   -0.52957E-04  2696   0.572E-01
   9 F= -.13064392E+03 E0= -.13065653E+03  d E =-.129816E-01  mag=    -0.0000
       N       E                     dE             d eps       ncg     rms          rms(c)
DAV:   1    -0.118197705984E+03    0.13101E-01   -0.81650E+00  3712   0.592E+00    0.456E-01
DAV:   2    -0.118216813181E+03   -0.19107E-01   -0.21927E-01  5120   0.188E+00    0.421E-01
DAV:   3    -0.118216582073E+03    0.23111E-03   -0.12803E-02  4152   0.206E+00    0.344E-01
DAV:   4    -0.118216477289E+03    0.10478E-03   -0.96400E-03  4224   0.249E+00    0.276E-01
DAV:   5    -0.118215559998E+03    0.91729E-03   -0.74042E-03  4744   0.221E+00    0.173E-01
DAV:   6    -0.118214945751E+03    0.61425E-03   -0.23974E-03  5232   0.110E+00    0.436E-02
DAV:   7    -0.118214972492E+03   -0.26741E-04   -0.63621E-04  3008   0.296E-01
  10 F= -.13065181E+03 E0= -.13066430E+03  d E =-.208663E-01  mag=     0.0000
       N       E                     dE             d eps       ncg     rms          rms(c)
DAV:   1    -0.118217584136E+03   -0.26384E-02   -0.18408E-01  3712   0.879E-01    0.854E-02
DAV:   2    -0.118218183961E+03   -0.59982E-03   -0.67567E-03  5072   0.275E-01    0.779E-02
DAV:   3    -0.118218193753E+03   -0.97922E-05   -0.42993E-04  2528   0.401E-01
  11 F= -.13065478E+03 E0= -.13066731E+03  d E =-.296944E-02  mag=     0.0000
       N       E                     dE             d eps       ncg     rms          rms(c)
DAV:   1    -0.118221962827E+03   -0.37789E-02   -0.16333E+00  3712   0.256E+00    0.288E-01
DAV:   2    -0.118226808217E+03   -0.48454E-02   -0.55466E-02  5568   0.149E+00    0.280E-01
DAV:   3    -0.118226336725E+03    0.47149E-03   -0.76245E-03  4128   0.189E+00    0.244E-01
DAV:   4    -0.118225559685E+03    0.77704E-03   -0.32160E-03  4256   0.105E+00    0.922E-02
DAV:   5    -0.118225730751E+03   -0.17107E-03   -0.18248E-03  4344   0.563E-01
  12 F= -.13066166E+03 E0= -.13067405E+03  d E =-.985678E-02  mag=     0.0000
       N       E                     dE             d eps       ncg     rms          rms(c)
DAV:   1    -0.118216355733E+03    0.92040E-02   -0.64353E+00  3712   0.503E+00    0.521E-01
DAV:   2    -0.118235608240E+03   -0.19253E-01   -0.23282E-01  4936   0.142E+00    0.464E-01
DAV:   3    -0.118234142463E+03    0.14658E-02   -0.75825E-03  4288   0.131E+00    0.329E-01
DAV:   4    -0.118237607033E+03   -0.34646E-02   -0.19253E-02  4408   0.342E+00    0.406E-01
DAV:   5    -0.118233758755E+03    0.38483E-02   -0.15747E-02  5016   0.307E+00    0.179E-01
DAV:   6    -0.118232957097E+03    0.80166E-03   -0.17812E-03  3952   0.112E+00    0.491E-02
DAV:   7    -0.118233028720E+03   -0.71623E-04   -0.10700E-03  4072   0.222E-01
  13 F= -.13066797E+03 E0= -.13068034E+03  d E =-.161631E-01  mag=     0.0000
       N       E                     dE             d eps       ncg     rms          rms(c)
DAV:   1    -0.118238685575E+03   -0.57285E-02   -0.79640E-01  3712   0.172E+00    0.220E-01
DAV:   2    -0.118240958946E+03   -0.22734E-02   -0.29519E-02  5096   0.501E-01    0.182E-01
DAV:   3    -0.118240942963E+03    0.15983E-04   -0.18867E-03  3968   0.878E-01
  14 F= -.13067523E+03 E0= -.13068753E+03  d E =-.726422E-02  mag=     0.0000
       N       E                     dE             d eps       ncg     rms          rms(c)
DAV:   1    -0.118235116644E+03    0.58423E-02   -0.69216E+00  3712   0.529E+00    0.687E-01
DAV:   2    -0.118254621752E+03   -0.19505E-01   -0.24821E-01  6048   0.321E+00    0.617E-01
DAV:   3    -0.118254433946E+03    0.18781E-03   -0.45037E-02  4320   0.481E+00    0.581E-01
DAV:   4    -0.118248360125E+03    0.60738E-02   -0.19632E-02  4336   0.298E+00    0.178E-01
DAV:   5    -0.118249175890E+03   -0.81577E-03   -0.91692E-03  4824   0.146E+00    0.166E-01
DAV:   6    -0.118248999942E+03    0.17595E-03   -0.36281E-03  4080   0.989E-01    0.398E-02
DAV:   7    -0.118249064213E+03   -0.64271E-04   -0.87569E-04  3528   0.286E-01
  15 F= -.13068229E+03 E0= -.13069459E+03  d E =-.143225E-01  mag=     0.0000
       N       E                     dE             d eps       ncg     rms          rms(c)
DAV:   1    -0.118248660479E+03    0.33946E-03   -0.25106E-01  3712   0.995E-01    0.109E-01
DAV:   2    -0.118249520016E+03   -0.85954E-03   -0.10431E-02  5192   0.559E-01    0.112E-01
DAV:   3    -0.118249423941E+03    0.96075E-04   -0.90403E-04  2560   0.622E-01
  16 F= -.13068271E+03 E0= -.13069504E+03  d E =-.147374E-01  mag=     0.0000
       N       E                     dE             d eps       ncg     rms          rms(c)
DAV:   1    -0.118254533296E+03   -0.50133E-02   -0.15533E+00  3712   0.252E+00    0.228E-01
DAV:   2    -0.118259598378E+03   -0.50651E-02   -0.58262E-02  5368   0.920E-01    0.228E-01
DAV:   3    -0.118259526343E+03    0.72036E-04   -0.49961E-03  4104   0.124E+00    0.208E-01
DAV:   4    -0.118259060135E+03    0.46621E-03   -0.18587E-03  3920   0.905E-01    0.119E-01
DAV:   5    -0.118258972545E+03    0.87591E-04   -0.93478E-04  2856   0.344E-01
  17 F= -.13068938E+03 E0= -.13070176E+03  d E =-.667061E-02  mag=     0.0000
       N       E                     dE             d eps       ncg     rms          rms(c)
DAV:   1    -0.118259365792E+03   -0.30566E-03   -0.26188E+00  3712   0.326E+00    0.322E-01
DAV:   2    -0.118268443686E+03   -0.90779E-02   -0.10807E-01  4992   0.910E-01    0.309E-01
DAV:   3    -0.118267758126E+03    0.68556E-03   -0.28240E-03  4240   0.484E-01    0.222E-01
DAV:   4    -0.118267812059E+03   -0.53933E-04   -0.32586E-03  4440   0.124E+00    0.197E-01
DAV:   5    -0.118267345081E+03    0.46698E-03   -0.19448E-03  4400   0.104E+00    0.595E-02
DAV:   6    -0.118267279773E+03    0.65308E-04   -0.42229E-04  2448   0.455E-01
  18 F= -.13069420E+03 E0= -.13070651E+03  d E =-.114874E-01  mag=     0.0000
       N       E                     dE             d eps       ncg     rms          rms(c)
DAV:   1    -0.118268041863E+03   -0.69678E-03   -0.11691E-01  3712   0.708E-01    0.697E-02
DAV:   2    -0.118268484388E+03   -0.44253E-03   -0.49804E-03  5048   0.221E-01    0.675E-02
DAV:   3    -0.118268476246E+03    0.81414E-05   -0.24095E-04  2560   0.252E-01
  19 F= -.13069469E+03 E0= -.13070700E+03  d E =-.119861E-01  mag=     0.0000
       N       E                     dE             d eps       ncg     rms          rms(c)
DAV:   1    -0.118269043577E+03   -0.55919E-03   -0.45697E-01  3712   0.141E+00    0.165E-01
DAV:   2    -0.118270688454E+03   -0.16449E-02   -0.18037E-02  5992   0.104E+00    0.177E-01
DAV:   3    -0.118270326533E+03    0.36192E-03   -0.29339E-03  4080   0.112E+00    0.137E-01
DAV:   4    -0.118270131573E+03    0.19496E-03   -0.10771E-03  3624   0.463E-01
  20 F= -.13069499E+03 E0= -.13070730E+03  d E =-.122792E-01  mag=     0.0000
       N       E                     dE             d eps       ncg     rms          rms(c)
DAV:   1    -0.118266361473E+03    0.39651E-02   -0.18057E+00  3728   0.270E+00    0.279E-01
DAV:   2    -0.118272324602E+03   -0.59631E-02   -0.71049E-02  5288   0.116E+00    0.279E-01
DAV:   3    -0.118272118568E+03    0.20603E-03   -0.57549E-03  4104   0.147E+00    0.232E-01
DAV:   4    -0.118271494104E+03    0.62446E-03   -0.27926E-03  3552   0.114E+00    0.119E-01
DAV:   5    -0.118271372827E+03    0.12128E-03   -0.13466E-03  2768   0.600E-01
  21 F= -.13069363E+03 E0= -.13070598E+03  d E =-.109228E-01  mag=     0.0000
       N       E                     dE             d eps       ncg     rms          rms(c)
DAV:   1    -0.118268125333E+03    0.33688E-02   -0.12393E+00  3728   0.224E+00    0.248E-01
DAV:   2    -0.118271281233E+03   -0.31559E-02   -0.43787E-02  4992   0.585E-01    0.212E-01
DAV:   3    -0.118270730923E+03    0.55031E-03   -0.16292E-03  4064   0.505E-01    0.121E-01
DAV:   4    -0.118270801695E+03   -0.70773E-04   -0.18289E-03  4232   0.871E-01
  22 F= -.13069519E+03 E0= -.13070756E+03  d E =-.124850E-01  mag=     0.0000
       N       E                     dE             d eps       ncg     rms          rms(c)
DAV:   1    -0.118270948633E+03   -0.21771E-03   -0.31049E-01  5024   0.147E+00    0.141E-01
DAV:   2    -0.118274000058E+03   -0.30514E-02   -0.16903E-02  4680   0.243E+00    0.292E-01
DAV:   3    -0.118271305128E+03    0.26949E-02   -0.65574E-03  4136   0.195E+00    0.991E-02
DAV:   4    -0.118271228298E+03    0.76830E-04   -0.63664E-04  2912   0.351E-01
  23 F= -.13069454E+03 E0= -.13070687E+03  d E =-.118310E-01  mag=     0.0000
       N       E                     dE             d eps       ncg     rms          rms(c)
DAV:   1    -0.118270835824E+03    0.46930E-03   -0.11920E-01  4800   0.817E-01    0.996E-02
DAV:   2    -0.118271044256E+03   -0.20843E-03   -0.39141E-03  3480   0.520E-01    0.930E-02
DAV:   3    -0.118270966281E+03    0.77975E-04   -0.47406E-04  2712   0.420E-01
  24 F= -.13069493E+03 E0= -.13070727E+03  d E =-.122242E-01  mag=    -0.0000
       N       E                     dE             d eps       ncg     rms          rms(c)
DAV:   1    -0.118270753030E+03    0.29123E-03   -0.18237E-02  5312   0.456E-01    0.444E-02
DAV:   2    -0.118271507212E+03   -0.75418E-03   -0.28541E-03  2648   0.130E+00    0.152E-01
DAV:   3    -0.118270729757E+03    0.77746E-03   -0.16583E-03  2368   0.101E+00    0.167E-02
DAV:   4    -0.118270743023E+03   -0.13266E-04   -0.12405E-04  2448   0.742E-02
  25 F= -.13069497E+03 E0= -.13070729E+03  d E =-.122667E-01  mag=    -0.0000
       N       E                     dE             d eps       ncg     rms          rms(c)
DAV:   1    -0.118274958885E+03   -0.42291E-02   -0.49803E-01  3712   0.151E+00    0.814E-02
DAV:   2    -0.118276157321E+03   -0.11984E-02   -0.13122E-02  5096   0.455E-01    0.941E-02
DAV:   3    -0.118276133811E+03    0.23510E-04   -0.58705E-04  2648   0.329E-01
  26 F= -.13069847E+03 E0= -.13071073E+03  d E =-.349752E-02  mag=    -0.0000
       N       E                     dE             d eps       ncg     rms          rms(c)
DAV:   1    -0.118279187198E+03   -0.30299E-02   -0.20990E+00  3728   0.310E+00    0.218E-01
DAV:   2    -0.118283842357E+03   -0.46552E-02   -0.54436E-02  5096   0.935E-01    0.224E-01
DAV:   3    -0.118283746500E+03    0.95857E-04   -0.37552E-03  4112   0.949E-01    0.194E-01
DAV:   4    -0.118283476015E+03    0.27048E-03   -0.16400E-03  2936   0.908E-01    0.133E-01
DAV:   5    -0.118283387821E+03    0.88194E-04   -0.13516E-03  2560   0.871E-01
  27 F= -.13070195E+03 E0= -.13071423E+03  d E =-.698004E-02  mag=    -0.0000
       N       E                     dE             d eps       ncg     rms          rms(c)
DAV:   1    -0.118286808022E+03   -0.33320E-02   -0.53924E-01  3808   0.170E+00    0.106E-01
DAV:   2    -0.118288178940E+03   -0.13709E-02   -0.14929E-02  5584   0.682E-01    0.114E-01
DAV:   3    -0.118288171690E+03    0.72495E-05   -0.18293E-03  3968   0.747E-01
  28 F= -.13070468E+03 E0= -.13071675E+03  d E =-.272401E-02  mag=    -0.0000
       N       E                     dE             d eps       ncg     rms          rms(c)
DAV:   1    -0.118289440271E+03   -0.12613E-02   -0.25529E-01  3776   0.115E+00    0.120E-01
DAV:   2    -0.118289871019E+03   -0.43075E-03   -0.63875E-03  5320   0.407E-01    0.987E-02
DAV:   3    -0.118289997823E+03   -0.12680E-03   -0.12680E-03  3152   0.780E-01
  29 F= -.13070517E+03 E0= -.13071712E+03  d E =-.321772E-02  mag=    -0.0000
       N       E                     dE             d eps       ncg     rms          rms(c)
DAV:   1    -0.118289449610E+03    0.42141E-03   -0.14722E-02  5616   0.789E-01    0.356E-02
DAV:   2    -0.118289852787E+03   -0.40318E-03   -0.16201E-03  2432   0.959E-01    0.113E-01
DAV:   3    -0.118289435953E+03    0.41683E-03   -0.10867E-03  2392   0.782E-01    0.233E-02
DAV:   4    -0.118289457084E+03   -0.21131E-04   -0.29547E-04  2400   0.169E-01
  30 F= -.13070494E+03 E0= -.13071693E+03  d E =-.298720E-02  mag=    -0.0000
       N       E                     dE             d eps       ncg     rms          rms(c)
DAV:   1    -0.118289612348E+03   -0.17640E-03   -0.24308E-03  5080   0.140E-01    0.164E-02
DAV:   2    -0.118289621064E+03   -0.87152E-05   -0.92130E-05  2424   0.184E-01
  31 F= -.13070498E+03 E0= -.13071696E+03  d E =-.302575E-02  mag=    -0.0000
       N       E                     dE             d eps       ncg     rms          rms(c)
DAV:   1    -0.118293302319E+03   -0.36900E-02   -0.39130E-01  3760   0.135E+00    0.620E-02
DAV:   2    -0.118294142732E+03   -0.84041E-03   -0.83041E-03  5760   0.597E-01    0.875E-02
DAV:   3    -0.118294057931E+03    0.84801E-04   -0.10975E-03  3616   0.547E-01
  32 F= -.13070629E+03 E0= -.13071820E+03  d E =-.130643E-02  mag=    -0.0000
       N       E                     dE             d eps       ncg     rms          rms(c)
DAV:   1    -0.118299609594E+03   -0.54669E-02   -0.35217E+00  3776   0.401E+00    0.212E-01
DAV:   2    -0.118306549469E+03   -0.69399E-02   -0.76813E-02  5144   0.119E+00    0.242E-01
DAV:   3    -0.118306341763E+03    0.20771E-03   -0.40627E-03  4120   0.901E-01    0.197E-01
DAV:   4    -0.118306197841E+03    0.14392E-03   -0.15254E-03  3848   0.809E-01
  33 F= -.13070908E+03 E0= -.13072067E+03  d E =-.410038E-02  mag=    -0.0000
       N       E                     dE             d eps       ncg     rms          rms(c)
DAV:   1    -0.118297169813E+03    0.91720E-02   -0.14075E+01  3760   0.812E+00    0.404E-01
DAV:   2    -0.118326915188E+03   -0.29745E-01   -0.30170E-01  5696   0.330E+00    0.522E-01
DAV:   3    -0.118324451623E+03    0.24636E-02   -0.36591E-02  4040   0.329E+00    0.401E-01
DAV:   4    -0.118323793778E+03    0.65785E-03   -0.10888E-02  4080   0.125E+00    0.296E-01
DAV:   5    -0.118323191374E+03    0.60240E-03   -0.55072E-03  5256   0.968E-01    0.179E-01
DAV:   6    -0.118322891711E+03    0.29966E-03   -0.40592E-03  4208   0.142E+00    0.862E-02
DAV:   7    -0.118322751846E+03    0.13986E-03   -0.12699E-03  3664   0.639E-01
  34 F= -.13070713E+03 E0= -.13071809E+03  d E =-.214961E-02  mag=     0.0000
       N       E                     dE             d eps       ncg     rms          rms(c)
DAV:   1    -0.118303131836E+03    0.19760E-01   -0.56903E+00  3760   0.509E+00    0.241E-01
DAV:   2    -0.118314075674E+03   -0.10944E-01   -0.11814E-01  5168   0.168E+00    0.294E-01
DAV:   3    -0.118313723811E+03    0.35186E-03   -0.80899E-03  4016   0.144E+00    0.223E-01
DAV:   4    -0.118313420575E+03    0.30324E-03   -0.21502E-03  3952   0.882E-01    0.182E-01
DAV:   5    -0.118313207544E+03    0.21303E-03   -0.20489E-03  4064   0.946E-01    0.138E-01
DAV:   6    -0.118312931339E+03    0.27621E-03   -0.14144E-03  3888   0.776E-01    0.371E-02
DAV:   7    -0.118312941529E+03   -0.10190E-04   -0.31401E-04  2472   0.276E-01
  35 F= -.13070906E+03 E0= -.13072040E+03  d E =-.408148E-02  mag=     0.0000
       N       E                     dE             d eps       ncg     rms          rms(c)
DAV:   1    -0.118320003199E+03   -0.70719E-02   -0.12127E+00  3848   0.233E+00    0.103E-01
DAV:   2    -0.118322278318E+03   -0.22751E-02   -0.24441E-02  5328   0.783E-01    0.129E-01
DAV:   3    -0.118322220898E+03    0.57420E-04   -0.17139E-03  4000   0.603E-01
  36 F= -.13071162E+03 E0= -.13072278E+03  d E =-.255793E-02  mag=     0.0000
       N       E                     dE             d eps       ncg     rms          rms(c)
DAV:   1    -0.118323668864E+03   -0.13905E-02   -0.51563E-02  5272   0.634E-01    0.963E-02
DAV:   2    -0.118324045347E+03   -0.37648E-03   -0.21195E-03  3176   0.107E+00    0.139E-01
DAV:   3    -0.118323548707E+03    0.49664E-03   -0.16716E-03  2360   0.100E+00    0.564E-02
DAV:   4    -0.118323504885E+03    0.43821E-04   -0.31221E-04  2408   0.241E-01
  37 F= -.13071157E+03 E0= -.13072264E+03  d E =-.250904E-02  mag=     0.0000
       N       E                     dE             d eps       ncg     rms          rms(c)
DAV:   1    -0.118328130777E+03   -0.45821E-02   -0.58751E-01  3944   0.163E+00    0.605E-02
DAV:   2    -0.118329268562E+03   -0.11378E-02   -0.11960E-02  5272   0.478E-01    0.738E-02
DAV:   3    -0.118329251857E+03    0.16704E-04   -0.55021E-04  3296   0.320E-01
  38 F= -.13071345E+03 E0= -.13072439E+03  d E =-.187543E-02  mag=     0.0000
       N       E                     dE             d eps       ncg     rms          rms(c)
DAV:   1    -0.118332725169E+03   -0.34566E-02   -0.45598E-01  3952   0.145E+00    0.858E-02
DAV:   2    -0.118333533114E+03   -0.80795E-03   -0.85895E-03  5864   0.652E-01    0.104E-01
DAV:   3    -0.118333440106E+03    0.93008E-04   -0.13707E-03  3624   0.651E-01
  39 F= -.13071427E+03 E0= -.13072507E+03  d E =-.269489E-02  mag=    -0.0000
       N       E                     dE             d eps       ncg     rms          rms(c)
DAV:   1    -0.118336325390E+03   -0.27923E-02   -0.18080E+00  3960   0.288E+00    0.136E-01
DAV:   2    -0.118339706284E+03   -0.33809E-02   -0.37090E-02  5360   0.962E-01    0.161E-01
DAV:   3    -0.118339630281E+03    0.76003E-04   -0.23900E-03  4088   0.629E-01    0.121E-01
DAV:   4    -0.118339583651E+03    0.46630E-04   -0.73047E-04  3280   0.499E-01
  40 F= -.13071375E+03 E0= -.13072429E+03  d E =-.217845E-02  mag=     0.0000
       N       E                     dE             d eps       ncg     rms          rms(c)
DAV:   1    -0.118333129121E+03    0.65012E-02   -0.10481E+00  3968   0.234E+00    0.110E-01
DAV:   2    -0.118336744446E+03   -0.36153E-02   -0.24853E-02  6640   0.222E+00    0.241E-01
DAV:   3    -0.118335086939E+03    0.16575E-02   -0.85553E-03  4896   0.199E+00    0.981E-02
DAV:   4    -0.118335042477E+03    0.44462E-04   -0.14948E-03  4120   0.502E-01
  41 F= -.13071429E+03 E0= -.13072503E+03  d E =-.271986E-02  mag=     0.0000
       N       E                     dE             d eps       ncg     rms          rms(c)
DAV:   1    -0.118337546750E+03   -0.24598E-02   -0.16540E-01  4040   0.881E-01    0.456E-02
DAV:   2    -0.118337865714E+03   -0.31896E-03   -0.32252E-03  5424   0.338E-01    0.337E-02
DAV:   3    -0.118337887806E+03   -0.22092E-04   -0.44160E-04  2464   0.417E-01
  42 F= -.13071494E+03 E0= -.13072552E+03  d E =-.645201E-03  mag=     0.0000
       N       E                     dE             d eps       ncg     rms          rms(c)
DAV:   1    -0.118343236737E+03   -0.53710E-02   -0.14849E+00  4016   0.257E+00    0.886E-02
DAV:   2    -0.118345825324E+03   -0.25886E-02   -0.27101E-02  5328   0.797E-01    0.122E-01
DAV:   3    -0.118345804702E+03    0.20622E-04   -0.17896E-03  3800   0.481E-01
  43 F= -.13071626E+03 E0= -.13072651E+03  d E =-.197348E-02  mag=     0.0000
       N       E                     dE             d eps       ncg     rms          rms(c)
DAV:   1    -0.118349859698E+03   -0.40344E-02   -0.59386E+00  4032   0.511E+00    0.204E-01
DAV:   2    -0.118360217335E+03   -0.10358E-01   -0.11125E-01  5216   0.136E+00    0.251E-01
DAV:   3    -0.118359907668E+03    0.30967E-03   -0.33795E-03  3944   0.702E-01    0.196E-01
DAV:   4    -0.118359771052E+03    0.13662E-03   -0.10203E-03  3160   0.669E-01
  44 F= -.13071710E+03 E0= -.13072661E+03  d E =-.281077E-02  mag=    -0.0000
       N       E                     dE             d eps       ncg     rms          rms(c)
DAV:   1    -0.118349182719E+03    0.10725E-01   -0.16534E+00  4144   0.296E+00    0.155E-01
DAV:   2    -0.118357017564E+03   -0.78348E-02   -0.46642E-02  6408   0.352E+00    0.358E-01
DAV:   3    -0.118352329085E+03    0.46885E-02   -0.19630E-02  6152   0.302E+00    0.122E-01
DAV:   4    -0.118352278850E+03    0.50235E-04   -0.27273E-03  5416   0.715E-01    0.515E-02
DAV:   5    -0.118352397523E+03   -0.11867E-03   -0.14728E-03  3792   0.278E-01
  45 F= -.13071668E+03 E0= -.13072651E+03  d E =-.239404E-02  mag=     0.0000
       N       E                     dE             d eps       ncg     rms          rms(c)
DAV:   1    -0.118355154804E+03   -0.28760E-02   -0.60923E-01  3952   0.165E+00    0.697E-02
DAV:   2    -0.118356234793E+03   -0.10800E-02   -0.11285E-02  5400   0.491E-01    0.708E-02
DAV:   3    -0.118356236222E+03   -0.14289E-05   -0.78403E-04  3488   0.447E-01
  46 F= -.13071727E+03 E0= -.13072685E+03  d E =-.581006E-03  mag=     0.0000
       N       E                     dE             d eps       ncg     rms          rms(c)
DAV:   1    -0.118355663688E+03    0.57110E-03   -0.15377E-02  5512   0.427E-01    0.312E-02
DAV:   2    -0.118355844136E+03   -0.18045E-03   -0.64895E-04  2408   0.620E-01
  47 F= -.13071739E+03 E0= -.13072705E+03  d E =-.707976E-03  mag=     0.0000
       N       E                     dE             d eps       ncg     rms          rms(c)
DAV:   1    -0.118355947069E+03   -0.28338E-03   -0.55142E-03  5128   0.539E-01    0.147E-02
DAV:   2    -0.118355971721E+03   -0.24652E-04   -0.25734E-04  2496   0.104E-01
  48 F= -.13071722E+03 E0= -.13072684E+03  d E =-.531873E-03  mag=     0.0000
       N       E                     dE             d eps       ncg     rms          rms(c)
DAV:   1    -0.118358956667E+03   -0.30096E-02   -0.61360E-01  3968   0.167E+00    0.565E-02
DAV:   2    -0.118360055878E+03   -0.10992E-02   -0.11567E-02  5264   0.468E-01    0.743E-02
DAV:   3    -0.118360032284E+03    0.23594E-04   -0.44054E-04  2968   0.282E-01
  49 F= -.13071786E+03 E0= -.13072731E+03  d E =-.640620E-03  mag=     0.0000
       N       E                     dE             d eps       ncg     rms          rms(c)
DAV:   1    -0.118360473390E+03   -0.41751E-03   -0.94210E-03  5568   0.289E-01    0.570E-02
DAV:   2    -0.118360554067E+03   -0.80677E-04   -0.50150E-04  2304   0.543E-01
  50 F= -.13071798E+03 E0= -.13072736E+03  d E =-.759545E-03  mag=     0.0000
       N       E                     dE             d eps       ncg     rms          rms(c)
DAV:   1    -0.118361240899E+03   -0.76751E-03   -0.34587E-02  5344   0.674E-01    0.414E-02
DAV:   2    -0.118361376868E+03   -0.13597E-03   -0.70118E-04  2344   0.589E-01
  51 F= -.13071799E+03 E0= -.13072739E+03  d E =-.777129E-03  mag=     0.0000
       N       E                     dE             d eps       ncg     rms          rms(c)
DAV:   1    -0.118362015886E+03   -0.77499E-03   -0.47976E-02  5368   0.690E-01    0.358E-02
DAV:   2    -0.118362048017E+03   -0.32131E-04   -0.40117E-04  2448   0.277E-01
  52 F= -.13071804E+03 E0= -.13072740E+03  d E =-.459833E-04  mag=     0.0000
       N       E                     dE             d eps       ncg     rms          rms(c)
DAV:   1    -0.118362475652E+03   -0.45977E-03   -0.18461E-02  5496   0.426E-01    0.371E-02
DAV:   2    -0.118362628542E+03   -0.15289E-03   -0.68017E-04  2376   0.625E-01
  53 F= -.13071824E+03 E0= -.13072764E+03  d E =-.243518E-03  mag=     0.0000
       N       E                     dE             d eps       ncg     rms          rms(c)
DAV:   1    -0.118362774480E+03   -0.29883E-03   -0.17013E-02  5320   0.589E-01    0.233E-02
DAV:   2    -0.118362811479E+03   -0.37000E-04   -0.33224E-04  2328   0.239E-01
  54 F= -.13071817E+03 E0= -.13072756E+03  d E =0.684042E-04  mag=     0.0000
       N       E                     dE             d eps       ncg     rms          rms(c)
DAV:   1    -0.118362963585E+03   -0.18911E-03   -0.41971E-03  5296   0.274E-01    0.248E-02
DAV:   2    -0.118362981873E+03   -0.18288E-04   -0.14949E-04  2312   0.260E-01
  55 F= -.13071822E+03 E0= -.13072764E+03  d E =0.123630E-04  mag=    -0.0000
