<?xml version="1.0" encoding="ISO-8859-1"?>
<modeling>
 <generator>
  <i name="program" type="string">vasp </i>
  <i name="version" type="string">6.3.2  </i>
  <i name="subversion" type="string">27Jun22 (build Aug 17 2022 15:43:34) complex                          parallel </i>
  <i name="platform" type="string">tv2STDVTST </i>
  <i name="date" type="string">2025 02 17 </i>
  <i name="time" type="string">18:05:13 </i>
 </generator>
 <incar>
  <i type="int" name="ISTART">     0</i>
  <i type="string" name="PREC">Normal</i>
  <i type="int" name="ISPIN">     2</i>
  <i type="int" name="ICHARG">     2</i>
  <i type="int" name="IBRION">     2</i>
  <i name="EDIFF">      0.00020000</i>
  <i name="EDIFFG">     -0.03000000</i>
  <i type="int" name="NSW">   800</i>
  <i type="int" name="ISIF">     2</i>
  <i type="int" name="ISYM">     1</i>
  <i name="ENCUT">    400.00000000</i>
  <i name="POTIM">      0.50000000</i>
  <i type="logical" name="LREAL"> F  </i>
  <i type="int" name="ISMEAR">     1</i>
  <i name="SIGMA">      0.20000000</i>
  <i type="logical" name="LWAVE"> F  </i>
  <i type="logical" name="LCHARG"> F  </i>
  <i type="string" name="GGA">PE</i>
  <i type="int" name="IVDW">    11</i>
 </incar>
 <primitive_cell>
  <structure name="primitive_cell" >
   <crystal>
    <varray name="basis" >
     <v>       7.26000023       0.00000000       0.00000000 </v>
     <v>       0.00000000       5.13359547       0.00000000 </v>
     <v>       0.00000000       0.00000000      23.98379135 </v>
    </varray>
    <i name="volume">    893.87360752 </i>
    <varray name="rec_basis" >
     <v>       0.13774104       0.00000000       0.00000000 </v>
     <v>       0.00000000       0.19479525       0.00000000 </v>
     <v>       0.00000000       0.00000000       0.04169483 </v>
    </varray>
   </crystal>
   <varray name="positions" >
    <v>       0.00000000       0.00000000       0.00000000 </v>
    <v>       0.00000000       0.50000000       0.00000000 </v>
    <v>       0.50000000       0.00000000       0.00000000 </v>
    <v>       0.50000000       0.50000000       0.00000000 </v>
    <v>       0.25000000       0.25000000       0.05351109 </v>
    <v>       0.25000000       0.75000000       0.05351109 </v>
    <v>       0.75000000       0.25000000       0.05351109 </v>
    <v>       0.75000000       0.75000000       0.05351109 </v>
    <v>       0.00000000       0.00000000       0.10541371 </v>
    <v>       0.00000000       0.50000000       0.10541371 </v>
    <v>       0.50000000       0.00000000       0.10541371 </v>
    <v>       0.50000000       0.50000000       0.10541371 </v>
    <v>       0.25000000       0.25000000       0.15715010 </v>
    <v>       0.25000000       0.75000000       0.15715010 </v>
    <v>       0.75000000       0.25000000       0.15715010 </v>
    <v>       0.75000000       0.75000000       0.15715010 </v>
    <v>       0.00000000       0.00000000       0.20866257 </v>
    <v>       0.00000000       0.50000000       0.20866257 </v>
    <v>       0.50000000       0.00000000       0.20866257 </v>
    <v>       0.50000000       0.50000000       0.20866257 </v>
    <v>       0.25000000       0.25000000       0.25947965 </v>
    <v>       0.25000000       0.75000000       0.25947965 </v>
    <v>       0.75000000       0.25000000       0.25947965 </v>
    <v>       0.75000000       0.75000000       0.25947965 </v>
    <v>       0.00000000       0.00000000       0.31415415 </v>
    <v>       0.00000000       0.50000000       0.31415415 </v>
    <v>       0.50000000       0.00000000       0.31415415 </v>
    <v>       0.50000000       0.50000000       0.31415415 </v>
    <v>       0.25000000       0.25000000       0.36181799 </v>
    <v>       0.25000000       0.75000000       0.36181799 </v>
    <v>       0.75000000       0.25000000       0.36181799 </v>
    <v>       0.75000000       0.75000000       0.36181799 </v>
    <v>       1.00000000       0.50000000       0.42690792 </v>
    <v>       1.00000000       0.60275482       0.44890201 </v>
   </varray>
  </structure>
  <varray name="primitive_index" >
   <v type="int" >        1 </v>
   <v type="int" >        2 </v>
   <v type="int" >        3 </v>
   <v type="int" >        4 </v>
   <v type="int" >        5 </v>
   <v type="int" >        6 </v>
   <v type="int" >        7 </v>
   <v type="int" >        8 </v>
   <v type="int" >        9 </v>
   <v type="int" >       10 </v>
   <v type="int" >       11 </v>
   <v type="int" >       12 </v>
   <v type="int" >       13 </v>
   <v type="int" >       14 </v>
   <v type="int" >       15 </v>
   <v type="int" >       16 </v>
   <v type="int" >       17 </v>
   <v type="int" >       18 </v>
   <v type="int" >       19 </v>
   <v type="int" >       20 </v>
   <v type="int" >       21 </v>
   <v type="int" >       22 </v>
   <v type="int" >       23 </v>
   <v type="int" >       24 </v>
   <v type="int" >       25 </v>
   <v type="int" >       26 </v>
   <v type="int" >       27 </v>
   <v type="int" >       28 </v>
   <v type="int" >       29 </v>
   <v type="int" >       30 </v>
   <v type="int" >       31 </v>
   <v type="int" >       32 </v>
   <v type="int" >       33 </v>
   <v type="int" >       34 </v>
  </varray>
 </primitive_cell>
 <kpoints>
  <generation param="Monkhorst-Pack">
   <v type="int" name="divisions">       3        3        1 </v>
   <v name="usershift">      0.00000000       0.00000000       0.00000000 </v>
   <v name="genvec1">      0.33333333       0.00000000       0.00000000 </v>
   <v name="genvec2">      0.00000000       0.33333333       0.00000000 </v>
   <v name="genvec3">      0.00000000       0.00000000       1.00000000 </v>
   <v name="shift">      0.00000000       0.00000000       0.00000000 </v>
  </generation>
  <varray name="kpointlist" >
   <v>       0.00000000       0.00000000       0.00000000 </v>
   <v>       0.33333333       0.00000000       0.00000000 </v>
   <v>       0.00000000       0.33333333       0.00000000 </v>
   <v>       0.33333333       0.33333333       0.00000000 </v>
  </varray>
  <varray name="weights" >
   <v>       0.11111111 </v>
   <v>       0.22222222 </v>
   <v>       0.22222222 </v>
   <v>       0.44444444 </v>
  </varray>
 </kpoints>
 <parameters>
  <separator name="general" >
   <i type="string" name="SYSTEM">unknown system</i>
   <i type="logical" name="LCOMPAT"> F  </i>
  </separator>
  <separator name="electronic" >
   <i type="string" name="PREC">normal</i>
   <i name="ENMAX">    400.00000000</i>
   <i name="ENAUG">    586.98000000</i>
   <i name="EDIFF">      0.00020000</i>
   <i type="int" name="IALGO">    38</i>
   <i type="int" name="IWAVPR">    11</i>
   <i type="int" name="NBANDS">   232</i>
   <i type="int" name="NBANDSLOW">    -1</i>
   <i type="int" name="NBANDSHIGH">    -1</i>
   <i name="NELECT">    354.00000000</i>
   <i type="int" name="TURBO">     0</i>
   <i type="int" name="IRESTART">     0</i>
   <i type="int" name="NREBOOT">     0</i>
   <i type="int" name="NMIN">     0</i>
   <i name="EREF">      0.00000000</i>
   <separator name="electronic smearing" >
    <i type="int" name="ISMEAR">     1</i>
    <i name="SIGMA">      0.20000000</i>
    <i name="KSPACING">      0.50000000</i>
    <i type="logical" name="KGAMMA"> T  </i>
    <i type="logical" name="KBLOWUP"> T  </i>
   </separator>
   <separator name="electronic projectors" >
    <i type="logical" name="LREAL"> F  </i>
    <v name="ROPT">      0.00000000      0.00000000</v>
    <i type="int" name="LMAXPAW">  -100</i>
    <i type="int" name="LMAXMIX">     2</i>
    <i type="logical" name="NLSPLINE"> F  </i>
   </separator>
   <separator name="electronic startup" >
    <i type="int" name="ISTART">     0</i>
    <i type="int" name="ICHARG">     2</i>
    <i type="int" name="INIWAV">     1</i>
   </separator>
   <separator name="electronic spin" >
    <i type="int" name="ISPIN">     2</i>
    <i type="logical" name="LNONCOLLINEAR"> F  </i>
    <v name="MAGMOM">      1.00000000      1.00000000      1.00000000      1.00000000      1.00000000      1.00000000      1.00000000      1.00000000      1.00000000      1.00000000      1.00000000      1.00000000      1.00000000      1.00000000      1.00000000      1.00000000      1.00000000      1.00000000      1.00000000      1.00000000
      1.00000000      1.00000000      1.00000000      1.00000000      1.00000000      1.00000000      1.00000000      1.00000000      1.00000000      1.00000000      1.00000000      1.00000000      1.00000000      1.00000000</v>
    <i name="NUPDOWN">     -1.00000000</i>
    <i type="logical" name="LSORBIT"> F  </i>
    <v name="SAXIS">      0.00000000      0.00000000      1.00000000</v>
    <i type="logical" name="LSPIRAL"> F  </i>
    <v name="QSPIRAL">      0.00000000      0.00000000      0.00000000</v>
    <i type="logical" name="LZEROZ"> F  </i>
   </separator>
   <separator name="electronic exchange-correlation" >
    <i type="logical" name="LASPH"> F  </i>
    <i type="logical" name="LMETAGGA"> F  </i>
   </separator>
   <separator name="electronic convergence" >
    <i type="int" name="NELM">    60</i>
    <i type="int" name="NELMDL">    -5</i>
    <i type="int" name="NELMIN">     2</i>
    <i name="ENINI">    400.00000000</i>
    <separator name="electronic convergence detail" >
     <i type="logical" name="LDIAG"> T  </i>
     <i type="logical" name="LSUBROT"> F  </i>
     <i name="WEIMIN">      0.00100000</i>
     <i name="EBREAK">      0.00000022</i>
     <i name="DEPER">      0.30000000</i>
     <i type="int" name="NRMM">     4</i>
     <i name="TIME">      0.40000000</i>
    </separator>
   </separator>
   <separator name="electronic mixer" >
    <i name="AMIX">      0.40000000</i>
    <i name="BMIX">      1.00000000</i>
    <i name="AMIN">      0.10000000</i>
    <i name="AMIX_MAG">      1.60000000</i>
    <i name="BMIX_MAG">      1.00000000</i>
    <separator name="electronic mixer details" >
     <i type="int" name="IMIX">     4</i>
     <i type="logical" name="MIXFIRST"> F  </i>
     <i type="int" name="MAXMIX">   -45</i>
     <i name="WC">    100.00000000</i>
     <i type="int" name="INIMIX">     1</i>
     <i type="int" name="MIXPRE">     1</i>
     <i type="int" name="MREMOVE">     5</i>
    </separator>
   </separator>
   <separator name="electronic dipolcorrection" >
    <i type="logical" name="LDIPOL"> F  </i>
    <i type="logical" name="LMONO"> F  </i>
    <i type="int" name="IDIPOL">     0</i>
    <i name="EPSILON">      1.00000000</i>
    <v name="DIPOL">   -100.00000000   -100.00000000   -100.00000000</v>
    <i name="EFIELD">      0.00000000</i>
   </separator>
  </separator>
  <separator name="grids" >
   <i type="int" name="NGX">    36</i>
   <i type="int" name="NGY">    28</i>
   <i type="int" name="NGZ">   120</i>
   <i type="int" name="NGXF">    72</i>
   <i type="int" name="NGYF">    56</i>
   <i type="int" name="NGZF">   240</i>
   <i type="logical" name="ADDGRID"> F  </i>
  </separator>
  <separator name="ionic" >
   <i type="int" name="NSW">   800</i>
   <i type="int" name="IBRION">     2</i>
   <i type="int" name="MDALGO">     0</i>
   <i type="int" name="ISIF">     2</i>
   <i name="PSTRESS">      0.00000000</i>
   <i name="EDIFFG">     -0.03000000</i>
   <i type="int" name="NFREE">     1</i>
   <i name="POTIM">      0.50000000</i>
   <i name="SMASS">     -3.00000000</i>
   <i name="SCALEE">      1.00000000</i>
  </separator>
  <separator name="ionic md" >
   <i name="TEBEG">      0.00010000</i>
   <i name="TEEND">      0.00010000</i>
   <i type="int" name="NBLOCK">     1</i>
   <i type="int" name="KBLOCK">   800</i>
   <i type="int" name="NPACO">   256</i>
   <i name="APACO">     10.00000000</i>
  </separator>
  <separator name="symmetry" >
   <i type="int" name="ISYM">     1</i>
   <i name="SYMPREC">      0.00001000</i>
  </separator>
  <separator name="dos" >
   <i type="int" name="LORBIT">     0</i>
   <v name="RWIGS">     -1.00000000     -1.00000000</v>
   <i type="int" name="NEDOS">   301</i>
   <i name="EMIN">     10.00000000</i>
   <i name="EMAX">    -10.00000000</i>
   <i name="EFERMI">      0.00000000</i>
  </separator>
  <separator name="writing" >
   <i type="int" name="NWRITE">     2</i>
   <i type="logical" name="LWAVE"> F  </i>
   <i type="logical" name="LDOWNSAMPLE"> F  </i>
   <i type="logical" name="LCHARG"> F  </i>
   <i type="logical" name="LPARD"> F  </i>
   <i type="logical" name="LVTOT"> F  </i>
   <i type="logical" name="LVHAR"> F  </i>
   <i type="logical" name="LELF"> F  </i>
   <i type="logical" name="LOPTICS"> F  </i>
   <v name="STM">      0.00000000      0.00000000      0.00000000      0.00000000      0.00000000      0.00000000      0.00000000</v>
  </separator>
  <separator name="performance" >
   <i type="int" name="NPAR">     4</i>
   <i type="int" name="NSIM">     4</i>
   <i type="int" name="NBLK">    -1</i>
   <i type="logical" name="LPLANE"> T  </i>
   <i type="logical" name="LSCALAPACK"> T  </i>
   <i type="logical" name="LSCAAWARE"> F  </i>
   <i type="logical" name="LSCALU"> F  </i>
   <i type="logical" name="LASYNC"> F  </i>
   <i type="logical" name="LORBITALREAL"> F  </i>
  </separator>
  <separator name="miscellaneous" >
   <i type="int" name="IDIOT">     3</i>
   <i type="int" name="PHON_NSTRUCT">    -1</i>
   <i type="logical" name="LMUSIC"> F  </i>
   <v name="POMASS">     63.54600000      1.00000000</v>
   <v name="DARWINR">      0.00000000      0.00000000</v>
   <v name="DARWINV">      1.00000000      1.00000000</v>
   <i type="logical" name="LCORR"> T  </i>
  </separator>
  <i type="logical" name="GGA_COMPAT"> T  </i>
  <i type="logical" name="LBERRY"> F  </i>
  <i type="int" name="ICORELEVEL">     0</i>
  <i type="logical" name="LDAU"> F  </i>
  <i type="int" name="I_CONSTRAINED_M">     0</i>
  <separator name="electronic exchange-correlation" >
   <i type="string" name="GGA">PE</i>
   <i type="int" name="VOSKOWN">     0</i>
   <i type="logical" name="LHFCALC"> F  </i>
   <i type="string" name="PRECFOCK"></i>
   <i type="logical" name="LSYMGRAD"> F  </i>
   <i type="logical" name="LHFONE"> F  </i>
   <i type="logical" name="LRHFCALC"> F  </i>
   <i type="logical" name="LTHOMAS"> F  </i>
   <i type="logical" name="LMODELHF"> F  </i>
   <i type="logical" name="LFOCKACE"> F  </i>
   <i name="ENCUT4O">     -1.00000000</i>
   <i type="int" name="EXXOEP">     0</i>
   <i type="int" name="FOURORBIT">     0</i>
   <i name="AEXX">      0.00000000</i>
   <i name="HFALPHA">      0.00000000</i>
   <i name="MCALPHA">      0.00000000</i>
   <i name="ALDAX">      1.00000000</i>
   <i name="AGGAX">      1.00000000</i>
   <i name="ALDAC">      1.00000000</i>
   <i name="AGGAC">      1.00000000</i>
   <i type="int" name="NKREDX">     1</i>
   <i type="int" name="NKREDY">     1</i>
   <i type="int" name="NKREDZ">     1</i>
   <i type="logical" name="SHIFTRED"> F  </i>
   <i type="logical" name="ODDONLY"> F  </i>
   <i type="logical" name="EVENONLY"> F  </i>
   <i type="int" name="LMAXFOCK">     0</i>
   <i type="int" name="NMAXFOCKAE">     0</i>
   <i type="logical" name="LFOCKAEDFT"> F  </i>
   <i name="HFSCREEN">      0.00000000</i>
   <i name="HFSCREENC">      0.00000000</i>
   <i type="int" name="NBANDSGWLOW">     0</i>
  </separator>
  <separator name="vdW DFT" >
   <i type="logical" name="LUSE_VDW"> F  </i>
   <i name="Zab_VDW">     -0.84910000</i>
   <i name="PARAM1">      0.12340000</i>
   <i name="PARAM2">      1.00000000</i>
   <i name="PARAM3">      0.00000000</i>
  </separator>
  <separator name="model GW" >
   <i type="int" name="MODEL_GW">     0</i>
   <i name="MODEL_EPS0">     15.77424013</i>
   <i name="MODEL_ALPHA">      1.00000000</i>
  </separator>
  <separator name="linear response parameters" >
   <i type="logical" name="LEPSILON"> F  </i>
   <i type="logical" name="LRPA"> F  </i>
   <i type="logical" name="LNABLA"> F  </i>
   <i type="logical" name="LVEL"> F  </i>
   <i name="CSHIFT">      0.10000000</i>
   <i name="OMEGAMAX">     -1.00000000</i>
   <i name="DEG_THRESHOLD">      0.00200000</i>
   <i name="RTIME">     -0.10000000</i>
   <i name="WPLASMAI">      0.00000000</i>
   <v name="DFIELD">      0.00000000      0.00000000      0.00000000</v>
   <v name="WPLASMA">      0.00000000      0.00000000      0.00000000      0.00000000      0.00000000      0.00000000      0.00000000      0.00000000      0.00000000</v>
  </separator>
  <separator name="orbital magnetization" >
   <i type="logical" name="NUCIND"> F  </i>
   <v name="MAGPOS">      0.00000000      0.00000000      0.00000000</v>
   <i type="logical" name="LNICSALL"> T  </i>
   <i type="logical" name="ORBITALMAG"> F  </i>
   <i type="logical" name="LMAGBLOCH"> F  </i>
   <i type="logical" name="LCHIMAG"> F  </i>
   <i type="logical" name="LGAUGE"> T  </i>
   <i type="int" name="MAGATOM">     0</i>
   <v name="MAGDIPOL">      0.00000000      0.00000000      0.00000000</v>
   <v name="AVECCONST">      0.00000000      0.00000000      0.00000000</v>
  </separator>
  <separator name="response functions" >
   <i type="logical" name="LFINITE_TEMPERATURE"> F  </i>
   <i type="logical" name="LADDER"> F  </i>
   <i type="logical" name="LRPAFORCE"> F  </i>
   <i type="logical" name="LFXC"> F  </i>
   <i type="logical" name="LHARTREE"> T  </i>
   <i type="int" name="IBSE">     0</i>
   <v type="int" name="KPOINT">    -1     0     0     0</v>
   <i type="logical" name="LTCTC"> F  </i>
   <i type="logical" name="LTCTE"> F  </i>
   <i type="logical" name="LTETE"> F  </i>
   <i type="logical" name="LTRIPLET"> F  </i>
   <i type="logical" name="LFXCEPS"> F  </i>
   <i type="logical" name="LFXHEG"> F  </i>
   <i type="int" name="NATURALO">     2</i>
   <i type="logical" name="LHOLEGF"> F  </i>
   <i type="logical" name="L2ORDER"> F  </i>
   <i type="logical" name="LDMP1"> F  </i>
   <i type="logical" name="LMP2LT"> F  </i>
   <i type="logical" name="LSMP2LT"> F  </i>
   <i type="logical" name="LGWLF"> F  </i>
   <i name="ENCUTGW">     -2.00000000</i>
   <i name="ENCUTGWSOFT">     -2.00000000</i>
   <i name="ENCUTLF">     -1.00000000</i>
   <i type="logical" name="LESF_SPLINES"> F  </i>
   <i type="int" name="LMAXMP2">    -1</i>
   <i name="SCISSOR">      0.00000000</i>
   <i type="int" name="NOMEGA">     0</i>
   <i type="int" name="NOMEGAR">     0</i>
   <i type="int" name="NBANDSGW">    -1</i>
   <i type="int" name="NBANDSO">    -1</i>
   <i type="int" name="NBANDSV">    -1</i>
   <i type="int" name="NELMGW">     1</i>
   <i type="int" name="NELMHF">     1</i>
   <i type="int" name="DIM">     3</i>
   <i type="int" name="IESPILON">     4</i>
   <i type="int" name="ANTIRES">     0</i>
   <i name="OMEGAMAX">    -30.00000000</i>
   <i name="OMEGAMIN">    -30.00000000</i>
   <i name="OMEGATL">   -200.00000000</i>
   <i type="int" name="OMEGAGRID">     0</i>
   <i name="CSHIFT">     -0.10000000</i>
   <i type="logical" name="LSELFENERGY"> F  </i>
   <i type="logical" name="LSPECTRAL"> F  </i>
   <i type="logical" name="LSPECTRALGW"> F  </i>
   <i type="logical" name="LSINGLES"> F  </i>
   <i type="logical" name="LFERMIGW"> F  </i>
   <i type="logical" name="ODDONLYGW"> F  </i>
   <i type="logical" name="EVENONLYGW"> F  </i>
   <i type="int" name="NKREDLFX">     1</i>
   <i type="int" name="NKREDLFY">     1</i>
   <i type="int" name="NKREDLFZ">     1</i>
   <i type="int" name="MAXMEM">  2800</i>
   <i type="int" name="TELESCOPE">     0</i>
   <i type="int" name="NTAUPAR">    -1</i>
   <i type="int" name="NOMEGAPAR">    -1</i>
   <i name="DAMP_NEWTON">      0.80000001</i>
   <i name="LAMBDA">      1.00000000</i>
  </separator>
  <separator name="External order field" >
   <i name="OFIELD_KAPPA">      0.00000000</i>
   <v name="OFIELD_K">      0.00000000      0.00000000      0.00000000</v>
   <i name="OFIELD_Q6_NEAR">      0.00000000</i>
   <i name="OFIELD_Q6_FAR">      0.00000000</i>
   <i name="OFIELD_A">      0.00000000</i>
  </separator>
  <separator name="optional k-points parameters" >
   <i type="int" name="KPOINTS_OPT_MODE">     1</i>
   <i type="logical" name="LKPOINTS_OPT"> F  </i>
  </separator>
 </parameters>
 <atominfo>
  <atoms>      34 </atoms>
  <types>       2 </types>
  <array name="atoms" >
   <dimension dim="1">ion</dimension>
   <field type="string">element</field>
   <field type="int">atomtype</field>
   <set>
    <rc><c>Cu</c><c>   1</c></rc>
    <rc><c>Cu</c><c>   1</c></rc>
    <rc><c>Cu</c><c>   1</c></rc>
    <rc><c>Cu</c><c>   1</c></rc>
    <rc><c>Cu</c><c>   1</c></rc>
    <rc><c>Cu</c><c>   1</c></rc>
    <rc><c>Cu</c><c>   1</c></rc>
    <rc><c>Cu</c><c>   1</c></rc>
    <rc><c>Cu</c><c>   1</c></rc>
    <rc><c>Cu</c><c>   1</c></rc>
    <rc><c>Cu</c><c>   1</c></rc>
    <rc><c>Cu</c><c>   1</c></rc>
    <rc><c>Cu</c><c>   1</c></rc>
    <rc><c>Cu</c><c>   1</c></rc>
    <rc><c>Cu</c><c>   1</c></rc>
    <rc><c>Cu</c><c>   1</c></rc>
    <rc><c>Cu</c><c>   1</c></rc>
    <rc><c>Cu</c><c>   1</c></rc>
    <rc><c>Cu</c><c>   1</c></rc>
    <rc><c>Cu</c><c>   1</c></rc>
    <rc><c>Cu</c><c>   1</c></rc>
    <rc><c>Cu</c><c>   1</c></rc>
    <rc><c>Cu</c><c>   1</c></rc>
    <rc><c>Cu</c><c>   1</c></rc>
    <rc><c>Cu</c><c>   1</c></rc>
    <rc><c>Cu</c><c>   1</c></rc>
    <rc><c>Cu</c><c>   1</c></rc>
    <rc><c>Cu</c><c>   1</c></rc>
    <rc><c>Cu</c><c>   1</c></rc>
    <rc><c>Cu</c><c>   1</c></rc>
    <rc><c>Cu</c><c>   1</c></rc>
    <rc><c>Cu</c><c>   1</c></rc>
    <rc><c>H </c><c>   2</c></rc>
    <rc><c>H </c><c>   2</c></rc>
   </set>
  </array>
  <array name="atomtypes" >
   <dimension dim="1">type</dimension>
   <field type="int">atomspertype</field>
   <field type="string">element</field>
   <field>mass</field>
   <field>valence</field>
   <field type="string">pseudopotential</field>
   <set>
    <rc><c>  32</c><c>Cu</c><c>     63.54600000</c><c>     11.00000000</c><c>  PAW_PBE Cu 22Jun2005                  </c></rc>
    <rc><c>   2</c><c>H </c><c>      1.00000000</c><c>      1.00000000</c><c>  PAW_PBE H 15Jun2001                   </c></rc>
   </set>
  </array>
 </atominfo>
 <structure name="initialpos" >
  <crystal>
   <varray name="basis" >
    <v>       7.26000023       0.00000000       0.00000000 </v>
    <v>       0.00000000       5.13359547       0.00000000 </v>
    <v>       0.00000000       0.00000000      23.98379135 </v>
   </varray>
   <i name="volume">    893.87360752 </i>
   <varray name="rec_basis" >
    <v>       0.13774104       0.00000000       0.00000000 </v>
    <v>       0.00000000       0.19479525       0.00000000 </v>
    <v>       0.00000000       0.00000000       0.04169483 </v>
   </varray>
  </crystal>
  <varray name="positions" >
   <v>       0.00000000       0.00000000       0.00000000 </v>
   <v>       0.00000000       0.50000000       0.00000000 </v>
   <v>       0.50000000       0.00000000       0.00000000 </v>
   <v>       0.50000000       0.50000000       0.00000000 </v>
   <v>       0.25000000       0.25000000       0.05351109 </v>
   <v>       0.25000000       0.75000000       0.05351109 </v>
   <v>       0.75000000       0.25000000       0.05351109 </v>
   <v>       0.75000000       0.75000000       0.05351109 </v>
   <v>       0.00000000       0.00000000       0.10541371 </v>
   <v>       0.00000000       0.50000000       0.10541371 </v>
   <v>       0.50000000       0.00000000       0.10541371 </v>
   <v>       0.50000000       0.50000000       0.10541371 </v>
   <v>       0.25000000       0.25000000       0.15715010 </v>
   <v>       0.25000000       0.75000000       0.15715010 </v>
   <v>       0.75000000       0.25000000       0.15715010 </v>
   <v>       0.75000000       0.75000000       0.15715010 </v>
   <v>       0.00000000       0.00000000       0.20866257 </v>
   <v>       0.00000000       0.50000000       0.20866257 </v>
   <v>       0.50000000       0.00000000       0.20866257 </v>
   <v>       0.50000000       0.50000000       0.20866257 </v>
   <v>       0.25000000       0.25000000       0.25947965 </v>
   <v>       0.25000000       0.75000000       0.25947965 </v>
   <v>       0.75000000       0.25000000       0.25947965 </v>
   <v>       0.75000000       0.75000000       0.25947965 </v>
   <v>       0.00000000       0.00000000       0.31415415 </v>
   <v>       0.00000000       0.50000000       0.31415415 </v>
   <v>       0.50000000       0.00000000       0.31415415 </v>
   <v>       0.50000000       0.50000000       0.31415415 </v>
   <v>       0.25000000       0.25000000       0.36181799 </v>
   <v>       0.25000000       0.75000000       0.36181799 </v>
   <v>       0.75000000       0.25000000       0.36181799 </v>
   <v>       0.75000000       0.75000000       0.36181799 </v>
   <v>       1.00000000       0.50000000       0.42690792 </v>
   <v>       1.00000000       0.60275482       0.44890201 </v>
  </varray>
  <varray name="selective"  type="logical" >
   <v type="logical" >  F  F  F </v>
   <v type="logical" >  F  F  F </v>
   <v type="logical" >  F  F  F </v>
   <v type="logical" >  F  F  F </v>
   <v type="logical" >  F  F  F </v>
   <v type="logical" >  F  F  F </v>
   <v type="logical" >  F  F  F </v>
   <v type="logical" >  F  F  F </v>
   <v type="logical" >  F  F  F </v>
   <v type="logical" >  F  F  F </v>
   <v type="logical" >  F  F  F </v>
   <v type="logical" >  F  F  F </v>
   <v type="logical" >  T  T  T </v>
   <v type="logical" >  T  T  T </v>
   <v type="logical" >  T  T  T </v>
   <v type="logical" >  T  T  T </v>
   <v type="logical" >  T  T  T </v>
   <v type="logical" >  T  T  T </v>
   <v type="logical" >  T  T  T </v>
   <v type="logical" >  T  T  T </v>
   <v type="logical" >  T  T  T </v>
   <v type="logical" >  T  T  T </v>
   <v type="logical" >  T  T  T </v>
   <v type="logical" >  T  T  T </v>
   <v type="logical" >  T  T  T </v>
   <v type="logical" >  T  T  T </v>
   <v type="logical" >  T  T  T </v>
   <v type="logical" >  T  T  T </v>
   <v type="logical" >  T  T  T </v>
   <v type="logical" >  T  T  T </v>
   <v type="logical" >  T  T  T </v>
   <v type="logical" >  T  T  T </v>
   <v type="logical" >  T  T  T </v>
   <v type="logical" >  T  T  T </v>
  </varray>
  <nose>
   <v>      -3.00000000       0.00000000       0.00010000       0.00010000 </v>
  </nose>
 </structure>
 <calculation>
  <scstep>
   <time name="dav">    7.56    7.63</time>
   <time name="total">    7.65    7.72</time>
   <energy>
    <i name="alphaZ">    844.48149002 </i>
    <i name="ewald"> 173053.74559698 </i>
    <i name="hartreedc">-216193.66344359 </i>
    <i name="XCdc">   1468.29074315 </i>
    <i name="pawpsdc">  39302.70853331 </i>
    <i name="pawaedc"> -42689.07521165 </i>
    <i name="eentropy">      0.00439554 </i>
    <i name="bandstr">   2948.48613588 </i>
    <i name="atom">  44535.60175172 </i>
    <i name="e_fr_energy">   3270.57999136 </i>
    <i name="e_wo_entrp">   3270.57559582 </i>
    <i name="e_0_energy">   3270.57852618 </i>
   </energy>
  </scstep>
  <scstep>
   <time name="dav">    7.47    7.53</time>
   <time name="total">    7.47    7.54</time>
   <energy>
    <i name="e_fr_energy">    384.08612301 </i>
    <i name="e_wo_entrp">    384.09032886 </i>
    <i name="e_0_energy">    384.08752496 </i>
   </energy>
  </scstep>
  <scstep>
   <time name="dav">    7.44    7.51</time>
   <time name="total">    7.45    7.51</time>
   <energy>
    <i name="e_fr_energy">    -99.91213707 </i>
    <i name="e_wo_entrp">    -99.94121611 </i>
    <i name="e_0_energy">    -99.92183008 </i>
   </energy>
  </scstep>
  <scstep>
   <time name="dav">    8.17    8.24</time>
   <time name="total">    8.17    8.25</time>
   <energy>
    <i name="e_fr_energy">   -133.01000084 </i>
    <i name="e_wo_entrp">   -133.03731221 </i>
    <i name="e_0_energy">   -133.01910463 </i>
   </energy>
  </scstep>
  <scstep>
   <time name="dav">    8.09    8.16</time>
   <time name="total">    8.46    8.53</time>
   <energy>
    <i name="e_fr_energy">   -133.77155220 </i>
    <i name="e_wo_entrp">   -133.79956924 </i>
    <i name="e_0_energy">   -133.78089122 </i>
   </energy>
  </scstep>
  <scstep>
   <time name="dav">    7.90    7.97</time>
   <time name="total">    8.34    8.41</time>
   <energy>
    <i name="e_fr_energy">   -108.48517941 </i>
    <i name="e_wo_entrp">   -108.48033218 </i>
    <i name="e_0_energy">   -108.48356367 </i>
   </energy>
  </scstep>
  <scstep>
   <time name="dav">    8.04    8.10</time>
   <time name="total">    8.47    8.54</time>
   <energy>
    <i name="e_fr_energy">    -95.45685248 </i>
    <i name="e_wo_entrp">    -95.44849007 </i>
    <i name="e_0_energy">    -95.45406501 </i>
   </energy>
  </scstep>
  <scstep>
   <time name="dav">    8.23    8.30</time>
   <time name="total">    8.66    8.74</time>
   <energy>
    <i name="e_fr_energy">    -94.14410947 </i>
    <i name="e_wo_entrp">    -94.14383440 </i>
    <i name="e_0_energy">    -94.14401778 </i>
   </energy>
  </scstep>
  <scstep>
   <time name="dav">    9.61    9.69</time>
   <time name="total">   10.03   10.12</time>
   <energy>
    <i name="e_fr_energy">    -92.23432602 </i>
    <i name="e_wo_entrp">    -92.23342091 </i>
    <i name="e_0_energy">    -92.23402432 </i>
   </energy>
  </scstep>
  <scstep>
   <time name="dav">   10.23   10.31</time>
   <time name="total">   10.66   10.75</time>
   <energy>
    <i name="e_fr_energy">    -93.55689192 </i>
    <i name="e_wo_entrp">    -93.55789569 </i>
    <i name="e_0_energy">    -93.55722651 </i>
   </energy>
  </scstep>
  <scstep>
   <time name="dav">   10.73   10.82</time>
   <time name="total">   11.15   11.24</time>
   <energy>
    <i name="e_fr_energy">    -93.53186116 </i>
    <i name="e_wo_entrp">    -93.51897584 </i>
    <i name="e_0_energy">    -93.52756605 </i>
   </energy>
  </scstep>
  <scstep>
   <time name="dav">    9.29    9.37</time>
   <time name="total">    9.72    9.80</time>
   <energy>
    <i name="e_fr_energy">    -95.74607852 </i>
    <i name="e_wo_entrp">    -95.71116786 </i>
    <i name="e_0_energy">    -95.73444163 </i>
   </energy>
  </scstep>
  <scstep>
   <time name="dav">    8.79    8.86</time>
   <time name="total">    9.23    9.30</time>
   <energy>
    <i name="e_fr_energy">   -100.45519832 </i>
    <i name="e_wo_entrp">   -100.43132573 </i>
    <i name="e_0_energy">   -100.44724079 </i>
   </energy>
  </scstep>
  <scstep>
   <time name="dav">    8.99    9.06</time>
   <time name="total">    9.41    9.50</time>
   <energy>
    <i name="e_fr_energy">   -106.30189469 </i>
    <i name="e_wo_entrp">   -106.29006629 </i>
    <i name="e_0_energy">   -106.29795189 </i>
   </energy>
  </scstep>
  <scstep>
   <time name="dav">    9.64    9.72</time>
   <time name="total">   10.07   10.15</time>
   <energy>
    <i name="e_fr_energy">   -110.34452084 </i>
    <i name="e_wo_entrp">   -110.36840088 </i>
    <i name="e_0_energy">   -110.35248086 </i>
   </energy>
  </scstep>
  <scstep>
   <time name="dav">    8.28    8.35</time>
   <time name="total">    8.74    8.81</time>
   <energy>
    <i name="e_fr_energy">   -113.21301543 </i>
    <i name="e_wo_entrp">   -113.25871141 </i>
    <i name="e_0_energy">   -113.22824742 </i>
   </energy>
  </scstep>
  <scstep>
   <time name="dav">    8.00    8.06</time>
   <time name="total">    8.43    8.51</time>
   <energy>
    <i name="e_fr_energy">   -114.80169445 </i>
    <i name="e_wo_entrp">   -114.84625049 </i>
    <i name="e_0_energy">   -114.81654646 </i>
   </energy>
  </scstep>
  <scstep>
   <time name="dav">    8.12    8.19</time>
   <time name="total">    8.55    8.62</time>
   <energy>
    <i name="e_fr_energy">   -115.99847173 </i>
    <i name="e_wo_entrp">   -116.02555957 </i>
    <i name="e_0_energy">   -116.00750101 </i>
   </energy>
  </scstep>
  <scstep>
   <time name="dav">    8.86    8.94</time>
   <time name="total">    9.29    9.38</time>
   <energy>
    <i name="e_fr_energy">   -116.61146792 </i>
    <i name="e_wo_entrp">   -116.63937242 </i>
    <i name="e_0_energy">   -116.62076942 </i>
   </energy>
  </scstep>
  <scstep>
   <time name="dav">    8.22    8.30</time>
   <time name="total">    8.65    8.73</time>
   <energy>
    <i name="e_fr_energy">   -117.06947655 </i>
    <i name="e_wo_entrp">   -117.09919682 </i>
    <i name="e_0_energy">   -117.07938331 </i>
   </energy>
  </scstep>
  <scstep>
   <time name="dav">    8.19    8.27</time>
   <time name="total">    8.63    8.71</time>
   <energy>
    <i name="e_fr_energy">   -117.20102062 </i>
    <i name="e_wo_entrp">   -117.23410421 </i>
    <i name="e_0_energy">   -117.21204848 </i>
   </energy>
  </scstep>
  <scstep>
   <time name="dav">    8.57    8.65</time>
   <time name="total">    9.00    9.09</time>
   <energy>
    <i name="e_fr_energy">   -117.39877459 </i>
    <i name="e_wo_entrp">   -117.43279126 </i>
    <i name="e_0_energy">   -117.41011348 </i>
   </energy>
  </scstep>
  <scstep>
   <time name="dav">    8.92    9.00</time>
   <time name="total">    9.35    9.43</time>
   <energy>
    <i name="e_fr_energy">   -117.60987117 </i>
    <i name="e_wo_entrp">   -117.64354802 </i>
    <i name="e_0_energy">   -117.62109679 </i>
   </energy>
  </scstep>
  <scstep>
   <time name="dav">    9.33    9.42</time>
   <time name="total">    9.77    9.86</time>
   <energy>
    <i name="e_fr_energy">   -117.77021324 </i>
    <i name="e_wo_entrp">   -117.80619725 </i>
    <i name="e_0_energy">   -117.78220791 </i>
   </energy>
  </scstep>
  <scstep>
   <time name="dav">    8.90    8.98</time>
   <time name="total">    9.34    9.42</time>
   <energy>
    <i name="e_fr_energy">   -117.93540851 </i>
    <i name="e_wo_entrp">   -117.97059021 </i>
    <i name="e_0_energy">   -117.94713574 </i>
   </energy>
  </scstep>
  <scstep>
   <time name="dav">    9.03    9.11</time>
   <time name="total">    9.47    9.55</time>
   <energy>
    <i name="e_fr_energy">   -118.06104032 </i>
    <i name="e_wo_entrp">   -118.09668350 </i>
    <i name="e_0_energy">   -118.07292138 </i>
   </energy>
  </scstep>
  <scstep>
   <time name="dav">    8.87    8.94</time>
   <time name="total">    9.30    9.37</time>
   <energy>
    <i name="e_fr_energy">   -118.13968746 </i>
    <i name="e_wo_entrp">   -118.17601933 </i>
    <i name="e_0_energy">   -118.15179809 </i>
   </energy>
  </scstep>
  <scstep>
   <time name="dav">    6.69    6.75</time>
   <time name="total">    7.12    7.18</time>
   <energy>
    <i name="e_fr_energy">   -118.17072332 </i>
    <i name="e_wo_entrp">   -118.20673306 </i>
    <i name="e_0_energy">   -118.18272657 </i>
   </energy>
  </scstep>
  <scstep>
   <time name="dav">    5.97    6.02</time>
   <time name="total">    6.40    6.45</time>
   <energy>
    <i name="e_fr_energy">   -118.17738169 </i>
    <i name="e_wo_entrp">   -118.21339339 </i>
    <i name="e_0_energy">   -118.18938559 </i>
   </energy>
  </scstep>
  <scstep>
   <time name="dav">    5.86    5.90</time>
   <time name="total">    6.30    6.35</time>
   <energy>
    <i name="e_fr_energy">   -118.18043086 </i>
    <i name="e_wo_entrp">   -118.21653197 </i>
    <i name="e_0_energy">   -118.19246457 </i>
   </energy>
  </scstep>
  <scstep>
   <time name="dav">    5.67    5.72</time>
   <time name="total">    6.11    6.16</time>
   <energy>
    <i name="e_fr_energy">   -118.18166734 </i>
    <i name="e_wo_entrp">   -118.21760958 </i>
    <i name="e_0_energy">   -118.19364809 </i>
   </energy>
  </scstep>
  <scstep>
   <time name="dav">    5.56    5.60</time>
   <time name="total">    5.99    6.04</time>
   <energy>
    <i name="e_fr_energy">   -118.18194006 </i>
    <i name="e_wo_entrp">   -118.21783790 </i>
    <i name="e_0_energy">   -118.19390601 </i>
   </energy>
  </scstep>
  <scstep>
   <time name="dav">    5.51    5.56</time>
   <time name="total">    5.59    5.64</time>
   <energy>
    <i name="alphaZ">    844.48149002 </i>
    <i name="ewald"> 173053.74559698 </i>
    <i name="hartreedc">-215811.73170471 </i>
    <i name="XCdc">   1431.82668740 </i>
    <i name="pawpsdc">  41948.48972617 </i>
    <i name="pawaedc"> -45396.41087313 </i>
    <i name="eentropy">      0.03593180 </i>
    <i name="bandstr">   -724.22065344 </i>
    <i name="atom">  44535.60175172 </i>
    <i name="e_fr_energy">   -118.18204719 </i>
    <i name="e_wo_entrp">   -118.21797899 </i>
    <i name="e_0_energy">   -118.19402446 </i>
   </energy>
  </scstep>
  <structure>
   <crystal>
    <varray name="basis" >
     <v>       7.26000023       0.00000000       0.00000000 </v>
     <v>       0.00000000       5.13359547       0.00000000 </v>
     <v>       0.00000000       0.00000000      23.98379135 </v>
    </varray>
    <i name="volume">    893.87360752 </i>
    <varray name="rec_basis" >
     <v>       0.13774104       0.00000000       0.00000000 </v>
     <v>       0.00000000       0.19479525       0.00000000 </v>
     <v>       0.00000000       0.00000000       0.04169483 </v>
    </varray>
   </crystal>
   <varray name="positions" >
    <v>       0.00000000       0.00000000       0.00000000 </v>
    <v>       0.00000000       0.50000000       0.00000000 </v>
    <v>       0.50000000       0.00000000       0.00000000 </v>
    <v>       0.50000000       0.50000000       0.00000000 </v>
    <v>       0.25000000       0.25000000       0.05351109 </v>
    <v>       0.25000000       0.75000000       0.05351109 </v>
    <v>       0.75000000       0.25000000       0.05351109 </v>
    <v>       0.75000000       0.75000000       0.05351109 </v>
    <v>       0.00000000       0.00000000       0.10541371 </v>
    <v>       0.00000000       0.50000000       0.10541371 </v>
    <v>       0.50000000       0.00000000       0.10541371 </v>
    <v>       0.50000000       0.50000000       0.10541371 </v>
    <v>       0.25000000       0.25000000       0.15715010 </v>
    <v>       0.25000000       0.75000000       0.15715010 </v>
    <v>       0.75000000       0.25000000       0.15715010 </v>
    <v>       0.75000000       0.75000000       0.15715010 </v>
    <v>       0.00000000       0.00000000       0.20866257 </v>
    <v>       0.00000000       0.50000000       0.20866257 </v>
    <v>       0.50000000       0.00000000       0.20866257 </v>
    <v>       0.50000000       0.50000000       0.20866257 </v>
    <v>       0.25000000       0.25000000       0.25947965 </v>
    <v>       0.25000000       0.75000000       0.25947965 </v>
    <v>       0.75000000       0.25000000       0.25947965 </v>
    <v>       0.75000000       0.75000000       0.25947965 </v>
    <v>       0.00000000       0.00000000       0.31415415 </v>
    <v>       0.00000000       0.50000000       0.31415415 </v>
    <v>       0.50000000       0.00000000       0.31415415 </v>
    <v>       0.50000000       0.50000000       0.31415415 </v>
    <v>       0.25000000       0.25000000       0.36181799 </v>
    <v>       0.25000000       0.75000000       0.36181799 </v>
    <v>       0.75000000       0.25000000       0.36181799 </v>
    <v>       0.75000000       0.75000000       0.36181799 </v>
    <v>       1.00000000       0.50000000       0.42690792 </v>
    <v>       1.00000000       0.60275482       0.44890201 </v>
   </varray>
  </structure>
  <varray name="forces" >
   <v>       0.00000000      -0.00206052       0.46030582 </v>
   <v>       0.00000000       0.00147391       0.45701923 </v>
   <v>       0.00000000      -0.00627044       0.44933692 </v>
   <v>       0.00000000       0.00652768       0.43710138 </v>
   <v>      -0.00066611       0.00677862      -0.45300236 </v>
   <v>       0.00390565      -0.00635640      -0.45390173 </v>
   <v>       0.00066611       0.00677862      -0.45300236 </v>
   <v>      -0.00390565      -0.00635640      -0.45390173 </v>
   <v>       0.00000000      -0.00060421      -0.04228703 </v>
   <v>       0.00000000      -0.00202875      -0.02445801 </v>
   <v>       0.00000000      -0.00071406      -0.01055568 </v>
   <v>       0.00000000       0.00213315      -0.00978321 </v>
   <v>      -0.00664004       0.00524901       0.01501484 </v>
   <v>      -0.00185280      -0.00512633       0.01082377 </v>
   <v>       0.00664004       0.00524901       0.01501484 </v>
   <v>       0.00185280      -0.00512633       0.01082377 </v>
   <v>       0.00000000       0.00751226      -0.02877612 </v>
   <v>       0.00000000      -0.00591295      -0.00509951 </v>
   <v>       0.00000000      -0.00018383       0.04190519 </v>
   <v>       0.00000000      -0.00032181       0.00628947 </v>
   <v>       0.00460686       0.01696318       0.00340444 </v>
   <v>      -0.01357920      -0.01760441       0.01648914 </v>
   <v>      -0.00460686       0.01696318       0.00340444 </v>
   <v>       0.01357920      -0.01760441       0.01648914 </v>
   <v>       0.00000000       0.02183308      -0.00860076 </v>
   <v>       0.00000000      -0.02334086      -0.18730674 </v>
   <v>       0.00000000      -0.00468719       0.04410121 </v>
   <v>       0.00000000      -0.00118253       0.04556822 </v>
   <v>       0.07455728      -0.06616675      -0.06448265 </v>
   <v>       0.09544335       0.05351005      -0.06150736 </v>
   <v>      -0.07455728      -0.06616675      -0.06448265 </v>
   <v>      -0.09544335       0.05351005      -0.06150736 </v>
   <v>       0.00000000      -0.34287153      -0.24547255 </v>
   <v>       0.00000000       0.37620467       0.59503600 </v>
  </varray>
  <varray name="stress" >
   <v>     -31.40789976       0.00000000       0.00000000 </v>
   <v>       0.00000000     -28.23336077       0.43987286 </v>
   <v>       0.00000000       0.43987285      -6.25033759 </v>
  </varray>
  <energy>
   <i name="e_fr_energy">   -130.60662696 </i>
   <i name="e_wo_entrp">   -130.64255876 </i>
   <i name="e_0_energy">   -130.61860422 </i>
  </energy>
  <time name="totalsc">  295.89  298.41</time>
 </calculation>
 <calculation>
  <scstep>
   <time name="dav">    7.58    7.64</time>
   <time name="total">    8.03    8.09</time>
   <energy>
    <i name="alphaZ">    844.48149002 </i>
    <i name="ewald"> 173116.16173195 </i>
    <i name="hartreedc">-215874.58841324 </i>
    <i name="XCdc">   1431.79440393 </i>
    <i name="pawpsdc">  41948.39952569 </i>
    <i name="pawaedc"> -45396.29965743 </i>
    <i name="eentropy">      0.03673399 </i>
    <i name="bandstr">   -723.75880668 </i>
    <i name="atom">  44535.60175172 </i>
    <i name="e_fr_energy">   -118.17124005 </i>
    <i name="e_wo_entrp">   -118.20797405 </i>
    <i name="e_0_energy">   -118.18348472 </i>
   </energy>
  </scstep>
  <scstep>
   <time name="dav">    9.57    9.65</time>
   <time name="total">   10.01   10.09</time>
   <energy>
    <i name="e_fr_energy">   -118.17315125 </i>
    <i name="e_wo_entrp">   -118.20932097 </i>
    <i name="e_0_energy">   -118.18520782 </i>
   </energy>
  </scstep>
  <scstep>
   <time name="dav">    8.51    8.58</time>
   <time name="total">    8.95    9.02</time>
   <energy>
    <i name="e_fr_energy">   -118.17396932 </i>
    <i name="e_wo_entrp">   -118.21076816 </i>
    <i name="e_0_energy">   -118.18623560 </i>
   </energy>
  </scstep>
  <scstep>
   <time name="dav">    8.68    8.75</time>
   <time name="total">    9.11    9.18</time>
   <energy>
    <i name="e_fr_energy">   -118.17307588 </i>
    <i name="e_wo_entrp">   -118.20975948 </i>
    <i name="e_0_energy">   -118.18530375 </i>
   </energy>
  </scstep>
  <scstep>
   <time name="dav">    9.21    9.29</time>
   <time name="total">    9.65    9.73</time>
   <energy>
    <i name="e_fr_energy">   -118.17220200 </i>
    <i name="e_wo_entrp">   -118.20810173 </i>
    <i name="e_0_energy">   -118.18416857 </i>
   </energy>
  </scstep>
  <scstep>
   <time name="dav">    6.44    6.49</time>
   <time name="total">    6.52    6.57</time>
   <energy>
    <i name="alphaZ">    844.48149002 </i>
    <i name="ewald"> 173116.16173195 </i>
    <i name="hartreedc">-215872.97090088 </i>
    <i name="XCdc">   1431.71883674 </i>
    <i name="pawpsdc">  41947.59942257 </i>
    <i name="pawaedc"> -45395.48566443 </i>
    <i name="eentropy">      0.03648353 </i>
    <i name="bandstr">   -725.31531330 </i>
    <i name="atom">  44535.60175172 </i>
    <i name="e_fr_energy">   -118.17216208 </i>
    <i name="e_wo_entrp">   -118.20864561 </i>
    <i name="e_0_energy">   -118.18432325 </i>
   </energy>
  </scstep>
  <structure>
   <crystal>
    <varray name="basis" >
     <v>       7.26000023       0.00000000       0.00000000 </v>
     <v>       0.00000000       5.13359547       0.00000000 </v>
     <v>       0.00000000       0.00000000      23.98379135 </v>
    </varray>
    <i name="volume">    893.87360752 </i>
    <varray name="rec_basis" >
     <v>       0.13774104       0.00000000       0.00000000 </v>
     <v>       0.00000000       0.19479525       0.00000000 </v>
     <v>       0.00000000       0.00000000       0.04169483 </v>
    </varray>
   </crystal>
   <varray name="positions" >
    <v>       0.00000000       0.00000000       0.00000000 </v>
    <v>       0.00000000       0.50000000       0.00000000 </v>
    <v>       0.50000000       0.00000000       0.00000000 </v>
    <v>       0.50000000       0.50000000       0.00000000 </v>
    <v>       0.25000000       0.25000000       0.05351109 </v>
    <v>       0.25000000       0.75000000       0.05351109 </v>
    <v>       0.75000000       0.25000000       0.05351109 </v>
    <v>       0.75000000       0.75000000       0.05351109 </v>
    <v>       0.00000000       0.00000000       0.10541371 </v>
    <v>       0.00000000       0.50000000       0.10541371 </v>
    <v>       0.50000000       0.00000000       0.10541371 </v>
    <v>       0.50000000       0.50000000       0.10541371 </v>
    <v>       0.24995588       0.25004933       0.15718030 </v>
    <v>       0.24998769       0.74995183       0.15717187 </v>
    <v>       0.75004412       0.25004933       0.15718030 </v>
    <v>       0.75001231       0.74995183       0.15717187 </v>
    <v>       0.00000000       0.00007060       0.20860469 </v>
    <v>       0.00000000       0.49994443       0.20865231 </v>
    <v>       0.50000000      -0.00000173       0.20874686 </v>
    <v>       0.50000000       0.49999698       0.20867522 </v>
    <v>       0.25003061       0.25015941       0.25948650 </v>
    <v>       0.24990977       0.74983456       0.25951282 </v>
    <v>       0.74996939       0.25015941       0.25948650 </v>
    <v>       0.75009023       0.74983456       0.25951282 </v>
    <v>       0.00000000       0.00020518       0.31413685 </v>
    <v>       0.00000000       0.49978066       0.31377739 </v>
    <v>       0.50000000      -0.00004405       0.31424286 </v>
    <v>       0.50000000       0.49998889       0.31424581 </v>
    <v>       0.25049543       0.24937820       0.36168828 </v>
    <v>       0.25063422       0.75050286       0.36169427 </v>
    <v>       0.74950457       0.24937820       0.36168828 </v>
    <v>       0.74936578       0.75050286       0.36169427 </v>
    <v>       1.00000000       0.49677789       0.42641416 </v>
    <v>       1.00000000       0.60629018       0.45009891 </v>
   </varray>
  </structure>
  <varray name="forces" >
   <v>       0.00000000      -0.00200755       0.45628703 </v>
   <v>       0.00000000       0.00119293       0.45347664 </v>
   <v>       0.00000000      -0.00697756       0.44491668 </v>
   <v>       0.00000000       0.00706223       0.43135268 </v>
   <v>      -0.00017114       0.00662097      -0.45349710 </v>
   <v>       0.00446134      -0.00633518      -0.45483192 </v>
   <v>       0.00017114       0.00662097      -0.45349710 </v>
   <v>      -0.00446134      -0.00633518      -0.45483192 </v>
   <v>       0.00000000      -0.00112387      -0.04916774 </v>
   <v>       0.00000000      -0.00191627      -0.03071004 </v>
   <v>       0.00000000      -0.00021754      -0.00643647 </v>
   <v>       0.00000000       0.00158985      -0.01082477 </v>
   <v>       0.00157898      -0.00014732       0.00248252 </v>
   <v>       0.00289631       0.00014494       0.00337179 </v>
   <v>      -0.00157898      -0.00014732       0.00248252 </v>
   <v>      -0.00289631       0.00014494       0.00337179 </v>
   <v>       0.00000000       0.00196282      -0.01242662 </v>
   <v>       0.00000000      -0.00107629      -0.02182678 </v>
   <v>       0.00000000      -0.00232715       0.02027629 </v>
   <v>       0.00000000       0.00183646       0.00497039 </v>
   <v>       0.00895936       0.00239876      -0.00731100 </v>
   <v>      -0.00444586      -0.00328252      -0.00132940 </v>
   <v>      -0.00895936       0.00239876      -0.00731100 </v>
   <v>       0.00444586      -0.00328252      -0.00132940 </v>
   <v>       0.00000000       0.00435578      -0.00522279 </v>
   <v>       0.00000000      -0.00816830      -0.08591446 </v>
   <v>       0.00000000      -0.00271155       0.00668904 </v>
   <v>       0.00000000      -0.00307486       0.01706265 </v>
   <v>       0.03084115      -0.02402471      -0.02494065 </v>
   <v>       0.03633748       0.01275258      -0.01701334 </v>
   <v>      -0.03084115      -0.02402471      -0.02494065 </v>
   <v>      -0.03633748       0.01275258      -0.01701334 </v>
   <v>       0.00000000       0.56112743       0.62544305 </v>
   <v>       0.00000000      -0.52578161      -0.33180653 </v>
  </varray>
  <varray name="stress" >
   <v>     -29.90733689       0.00000000       0.00000000 </v>
   <v>       0.00000000     -27.52503218      -0.44193975 </v>
   <v>       0.00000000      -0.44193959      -5.50409360 </v>
  </varray>
  <energy>
   <i name="e_fr_energy">   -130.60516479 </i>
   <i name="e_wo_entrp">   -130.64164832 </i>
   <i name="e_0_energy">   -130.61732597 </i>
  </energy>
  <time name="totalsc">   67.17   67.73</time>
 </calculation>
 <calculation>
  <scstep>
   <time name="dav">    7.61    7.68</time>
   <time name="total">    8.05    8.11</time>
   <energy>
    <i name="alphaZ">    844.48149002 </i>
    <i name="ewald"> 173082.19261907 </i>
    <i name="hartreedc">-215838.85799290 </i>
    <i name="XCdc">   1431.73808834 </i>
    <i name="pawpsdc">  41947.68804187 </i>
    <i name="pawaedc"> -45395.60405245 </i>
    <i name="eentropy">      0.03588608 </i>
    <i name="bandstr">   -725.46343677 </i>
    <i name="atom">  44535.60175172 </i>
    <i name="e_fr_energy">   -118.18760501 </i>
    <i name="e_wo_entrp">   -118.22349109 </i>
    <i name="e_0_energy">   -118.19956703 </i>
   </energy>
  </scstep>
  <scstep>
   <time name="dav">    9.48    9.56</time>
   <time name="total">    9.92   10.00</time>
   <energy>
    <i name="e_fr_energy">   -118.18839820 </i>
    <i name="e_wo_entrp">   -118.22456309 </i>
    <i name="e_0_energy">   -118.20045317 </i>
   </energy>
  </scstep>
  <scstep>
   <time name="dav">    8.12    8.19</time>
   <time name="total">    8.21    8.28</time>
   <energy>
    <i name="alphaZ">    844.48149002 </i>
    <i name="ewald"> 173082.19261907 </i>
    <i name="hartreedc">-215839.42493960 </i>
    <i name="XCdc">   1431.78464555 </i>
    <i name="pawpsdc">  41948.03699436 </i>
    <i name="pawaedc"> -45396.05368352 </i>
    <i name="eentropy">      0.03620524 </i>
    <i name="bandstr">   -724.84328619 </i>
    <i name="atom">  44535.60175172 </i>
    <i name="e_fr_energy">   -118.18820335 </i>
    <i name="e_wo_entrp">   -118.22440859 </i>
    <i name="e_0_energy">   -118.20027176 </i>
   </energy>
  </scstep>
  <structure>
   <crystal>
    <varray name="basis" >
     <v>       7.26000023       0.00000000       0.00000000 </v>
     <v>       0.00000000       5.13359547       0.00000000 </v>
     <v>       0.00000000       0.00000000      23.98379135 </v>
    </varray>
    <i name="volume">    893.87360752 </i>
    <varray name="rec_basis" >
     <v>       0.13774104       0.00000000       0.00000000 </v>
     <v>       0.00000000       0.19479525       0.00000000 </v>
     <v>       0.00000000       0.00000000       0.04169483 </v>
    </varray>
   </crystal>
   <varray name="positions" >
    <v>       0.00000000       0.00000000       0.00000000 </v>
    <v>       0.00000000       0.50000000       0.00000000 </v>
    <v>       0.50000000       0.00000000       0.00000000 </v>
    <v>       0.50000000       0.50000000       0.00000000 </v>
    <v>       0.25000000       0.25000000       0.05351109 </v>
    <v>       0.25000000       0.75000000       0.05351109 </v>
    <v>       0.75000000       0.25000000       0.05351109 </v>
    <v>       0.75000000       0.75000000       0.05351109 </v>
    <v>       0.00000000       0.00000000       0.10541371 </v>
    <v>       0.00000000       0.50000000       0.10541371 </v>
    <v>       0.50000000       0.00000000       0.10541371 </v>
    <v>       0.50000000       0.50000000       0.10541371 </v>
    <v>       0.24997986       0.25002252       0.15716388 </v>
    <v>       0.24999438       0.74997801       0.15716004 </v>
    <v>       0.75002014       0.25002252       0.15716388 </v>
    <v>       0.75000562       0.74997801       0.15716004 </v>
    <v>       0.00000000       0.00003223       0.20863615 </v>
    <v>       0.00000000       0.49997463       0.20865789 </v>
    <v>       0.50000000      -0.00000079       0.20870105 </v>
    <v>       0.50000000       0.49999862       0.20866834 </v>
    <v>       0.25001398       0.25007277       0.25948278 </v>
    <v>       0.24995881       0.74992448       0.25949479 </v>
    <v>       0.74998602       0.25007277       0.25948278 </v>
    <v>       0.75004119       0.74992448       0.25949479 </v>
    <v>       0.00000000       0.00009367       0.31414625 </v>
    <v>       0.00000000       0.49989987       0.31398215 </v>
    <v>       0.50000000      -0.00002011       0.31419465 </v>
    <v>       0.50000000       0.49999493       0.31419599 </v>
    <v>       0.25022617       0.24971614       0.36175878 </v>
    <v>       0.25028953       0.75022956       0.36176151 </v>
    <v>       0.74977383       0.24971614       0.36175878 </v>
    <v>       0.74971047       0.75022956       0.36176151 </v>
    <v>       1.00000000       0.49852906       0.42668251 </v>
    <v>       1.00000000       0.60436876       0.44944841 </v>
   </varray>
  </structure>
  <varray name="forces" >
   <v>       0.00000000      -0.00174986       0.46250099 </v>
   <v>       0.00000000       0.00149083       0.45997674 </v>
   <v>       0.00000000      -0.00618450       0.45184881 </v>
   <v>       0.00000000       0.00677996       0.43937632 </v>
   <v>      -0.00026900       0.00715000      -0.45130030 </v>
   <v>       0.00434860      -0.00635941      -0.45230269 </v>
   <v>       0.00026900       0.00715000      -0.45130030 </v>
   <v>      -0.00434860      -0.00635941      -0.45230269 </v>
   <v>       0.00000000      -0.00041814      -0.04242072 </v>
   <v>       0.00000000      -0.00196133      -0.02427750 </v>
   <v>       0.00000000      -0.00023321      -0.00788205 </v>
   <v>       0.00000000       0.00203325      -0.00853468 </v>
   <v>      -0.00596540       0.00546119       0.01671649 </v>
   <v>      -0.00129999      -0.00492193       0.01315090 </v>
   <v>       0.00596540       0.00546119       0.01671649 </v>
   <v>       0.00129999      -0.00492193       0.01315090 </v>
   <v>       0.00000000       0.00771910      -0.02733278 </v>
   <v>       0.00000000      -0.00571563      -0.01000142 </v>
   <v>       0.00000000      -0.00053324       0.04575213 </v>
   <v>       0.00000000       0.00032503       0.00963833 </v>
   <v>       0.00690369       0.01551178      -0.00173602 </v>
   <v>      -0.01258356      -0.01602301       0.01124748 </v>
   <v>      -0.00690369       0.01551178      -0.00173602 </v>
   <v>       0.01258356      -0.01602301       0.01124748 </v>
   <v>       0.00000000       0.02074148      -0.01592933 </v>
   <v>       0.00000000      -0.02194926      -0.18478346 </v>
   <v>       0.00000000      -0.00425380       0.03639978 </v>
   <v>       0.00000000      -0.00208879       0.03962680 </v>
   <v>       0.07088157      -0.06125139      -0.05866878 </v>
   <v>       0.08902388       0.04765109      -0.05301165 </v>
   <v>      -0.07088157      -0.06125139      -0.05866878 </v>
   <v>      -0.08902388       0.04765109      -0.05301165 </v>
   <v>       0.00000000       0.16700503       0.24994702 </v>
   <v>       0.00000000      -0.13544354       0.07790415 </v>
  </varray>
  <varray name="stress" >
   <v>     -32.20600598       0.00000000       0.00000000 </v>
   <v>       0.00000000     -29.49601514      -0.04884748 </v>
   <v>       0.00000000      -0.04884760      -7.61664571 </v>
  </varray>
  <energy>
   <i name="e_fr_energy">   -130.61509026 </i>
   <i name="e_wo_entrp">   -130.65129550 </i>
   <i name="e_0_energy">   -130.62715868 </i>
  </energy>
  <time name="totalsc">   41.06   41.43</time>
 </calculation>
 <calculation>
  <scstep>
   <time name="dav">    7.83    7.89</time>
   <time name="total">    8.26    8.33</time>
   <energy>
    <i name="alphaZ">    844.48149002 </i>
    <i name="ewald"> 173154.81952762 </i>
    <i name="hartreedc">-215911.93805600 </i>
    <i name="XCdc">   1431.80664770 </i>
    <i name="pawpsdc">  41948.03995939 </i>
    <i name="pawaedc"> -45396.03879680 </i>
    <i name="eentropy">      0.03637272 </i>
    <i name="bandstr">   -724.99844837 </i>
    <i name="atom">  44535.60175172 </i>
    <i name="e_fr_energy">   -118.18955199 </i>
    <i name="e_wo_entrp">   -118.22592471 </i>
    <i name="e_0_energy">   -118.20167623 </i>
   </energy>
  </scstep>
  <scstep>
   <time name="dav">   11.80   11.90</time>
   <time name="total">   12.23   12.33</time>
   <energy>
    <i name="e_fr_energy">   -118.19537543 </i>
    <i name="e_wo_entrp">   -118.23258233 </i>
    <i name="e_0_energy">   -118.20777773 </i>
   </energy>
  </scstep>
  <scstep>
   <time name="dav">    9.42    9.50</time>
   <time name="total">    9.84    9.93</time>
   <energy>
    <i name="e_fr_energy">   -118.19278009 </i>
    <i name="e_wo_entrp">   -118.22936282 </i>
    <i name="e_0_energy">   -118.20497433 </i>
   </energy>
  </scstep>
  <scstep>
   <time name="dav">    7.76    7.83</time>
   <time name="total">    8.20    8.27</time>
   <energy>
    <i name="e_fr_energy">   -118.19303209 </i>
    <i name="e_wo_entrp">   -118.22965645 </i>
    <i name="e_0_energy">   -118.20524021 </i>
   </energy>
  </scstep>
  <scstep>
   <time name="dav">    5.43    5.48</time>
   <time name="total">    5.51    5.56</time>
   <energy>
    <i name="alphaZ">    844.48149002 </i>
    <i name="ewald"> 173154.81952762 </i>
    <i name="hartreedc">-215911.24531406 </i>
    <i name="XCdc">   1431.79563020 </i>
    <i name="pawpsdc">  41950.23888362 </i>
    <i name="pawaedc"> -45398.22200508 </i>
    <i name="eentropy">      0.03665354 </i>
    <i name="bandstr">   -725.69963827 </i>
    <i name="atom">  44535.60175172 </i>
    <i name="e_fr_energy">   -118.19302070 </i>
    <i name="e_wo_entrp">   -118.22967423 </i>
    <i name="e_0_energy">   -118.20523854 </i>
   </energy>
  </scstep>
  <structure>
   <crystal>
    <varray name="basis" >
     <v>       7.26000023       0.00000000       0.00000000 </v>
     <v>       0.00000000       5.13359547       0.00000000 </v>
     <v>       0.00000000       0.00000000      23.98379135 </v>
    </varray>
    <i name="volume">    893.87360752 </i>
    <varray name="rec_basis" >
     <v>       0.13774104       0.00000000       0.00000000 </v>
     <v>       0.00000000       0.19479525       0.00000000 </v>
     <v>       0.00000000       0.00000000       0.04169483 </v>
    </varray>
   </crystal>
   <varray name="positions" >
    <v>       0.00000000       0.00000000       0.00000000 </v>
    <v>       0.00000000       0.50000000       0.00000000 </v>
    <v>       0.50000000       0.00000000       0.00000000 </v>
    <v>       0.50000000       0.50000000       0.00000000 </v>
    <v>       0.25000000       0.25000000       0.05351109 </v>
    <v>       0.25000000       0.75000000       0.05351109 </v>
    <v>       0.75000000       0.25000000       0.05351109 </v>
    <v>       0.75000000       0.75000000       0.05351109 </v>
    <v>       0.00000000       0.00000000       0.10541371 </v>
    <v>       0.00000000       0.50000000       0.10541371 </v>
    <v>       0.50000000       0.00000000       0.10541371 </v>
    <v>       0.50000000       0.50000000       0.10541371 </v>
    <v>       0.24993278       0.25008140       0.15720190 </v>
    <v>       0.24998340       0.74992395       0.15718941 </v>
    <v>       0.75006722       0.25008140       0.15720190 </v>
    <v>       0.75001660       0.74992395       0.15718941 </v>
    <v>       0.00000000       0.00011568       0.20857173 </v>
    <v>       0.00000000       0.49991196       0.20863722 </v>
    <v>       0.50000000      -0.00000572       0.20880552 </v>
    <v>       0.50000000       0.50000054       0.20868899 </v>
    <v>       0.25006302       0.25024515       0.25948149 </v>
    <v>       0.24986025       0.74974621       0.25952379 </v>
    <v>       0.74993698       0.25024515       0.25948149 </v>
    <v>       0.75013975       0.74974621       0.25952379 </v>
    <v>       0.00000000       0.00032204       0.31411309 </v>
    <v>       0.00000000       0.49965760       0.31355053 </v>
    <v>       0.50000000      -0.00006747       0.31428353 </v>
    <v>       0.50000000       0.49997447       0.31429145 </v>
    <v>       0.25077793       0.24903750       0.36161905 </v>
    <v>       0.25098570       0.75076261       0.36163352 </v>
    <v>       0.74922207       0.24903750       0.36161905 </v>
    <v>       0.74901430       0.75076261       0.36163352 </v>
    <v>       1.00000000       0.49906977       0.42699913 </v>
    <v>       1.00000000       0.60417582       0.44990684 </v>
   </varray>
  </structure>
  <varray name="forces" >
   <v>       0.00000000      -0.00198063       0.45933748 </v>
   <v>       0.00000000       0.00121262       0.45629897 </v>
   <v>       0.00000000      -0.00650420       0.44797524 </v>
   <v>       0.00000000       0.00655284       0.43462050 </v>
   <v>      -0.00038864       0.00646943      -0.44889604 </v>
   <v>       0.00403552      -0.00627051      -0.45041557 </v>
   <v>       0.00038864       0.00646943      -0.44889604 </v>
   <v>      -0.00403552      -0.00627051      -0.45041557 </v>
   <v>       0.00000000      -0.00109053      -0.04580106 </v>
   <v>       0.00000000      -0.00174300      -0.02750905 </v>
   <v>       0.00000000       0.00007064       0.00151564 </v>
   <v>       0.00000000       0.00120350      -0.00562632 </v>
   <v>       0.00342847      -0.00098597       0.00380448 </v>
   <v>       0.00387782       0.00093777       0.00621865 </v>
   <v>      -0.00342847      -0.00098597       0.00380448 </v>
   <v>      -0.00387782       0.00093777       0.00621865 </v>
   <v>       0.00000000       0.00135934      -0.01112075 </v>
   <v>       0.00000000      -0.00032993      -0.02992079 </v>
   <v>       0.00000000      -0.00322394       0.02268508 </v>
   <v>       0.00000000       0.00257036       0.00779913 </v>
   <v>       0.01179292       0.00025887      -0.01174873 </v>
   <v>      -0.00217249      -0.00131230      -0.00623820 </v>
   <v>      -0.01179292       0.00025887      -0.01174873 </v>
   <v>       0.00217249      -0.00131230      -0.00623820 </v>
   <v>       0.00000000       0.00142036      -0.00519872 </v>
   <v>       0.00000000      -0.00665616      -0.09361516 </v>
   <v>       0.00000000      -0.00294659      -0.00143175 </v>
   <v>       0.00000000      -0.00381802       0.01401238 </v>
   <v>       0.03036093      -0.02088686      -0.03340334 </v>
   <v>       0.03551452       0.00941333      -0.02935802 </v>
   <v>      -0.03036093      -0.02088686      -0.03340334 </v>
   <v>      -0.03551452       0.00941333      -0.02935802 </v>
   <v>       0.00000000       0.15547727       0.23074435 </v>
   <v>       0.00000000      -0.11682146       0.08530839 </v>
  </varray>
  <varray name="stress" >
   <v>     -31.23184421       0.00000000       0.00000000 </v>
   <v>       0.00000000     -28.53654624      -0.02696134 </v>
   <v>       0.00000000      -0.02696142      -6.42256524 </v>
  </varray>
  <energy>
   <i name="e_fr_energy">   -130.62164876 </i>
   <i name="e_wo_entrp">   -130.65830230 </i>
   <i name="e_0_energy">   -130.63386660 </i>
  </energy>
  <time name="totalsc">   58.94   59.45</time>
 </calculation>
 <calculation>
  <scstep>
   <time name="dav">    7.79    7.85</time>
   <time name="total">    8.23    8.29</time>
   <energy>
    <i name="alphaZ">    844.48149002 </i>
    <i name="ewald"> 173284.24599744 </i>
    <i name="hartreedc">-216040.38397154 </i>
    <i name="XCdc">   1431.83553429 </i>
    <i name="pawpsdc">  41950.99708201 </i>
    <i name="pawaedc"> -45399.01058944 </i>
    <i name="eentropy">      0.03747991 </i>
    <i name="bandstr">   -725.99052946 </i>
    <i name="atom">  44535.60175172 </i>
    <i name="e_fr_energy">   -118.18575506 </i>
    <i name="e_wo_entrp">   -118.22323497 </i>
    <i name="e_0_energy">   -118.19824836 </i>
   </energy>
  </scstep>
  <scstep>
   <time name="dav">    9.68    9.76</time>
   <time name="total">   10.11   10.19</time>
   <energy>
    <i name="e_fr_energy">   -118.19608925 </i>
    <i name="e_wo_entrp">   -118.23346905 </i>
    <i name="e_0_energy">   -118.20854918 </i>
   </energy>
  </scstep>
  <scstep>
   <time name="dav">    7.81    7.87</time>
   <time name="total">    8.23    8.30</time>
   <energy>
    <i name="e_fr_energy">   -118.19597183 </i>
    <i name="e_wo_entrp">   -118.23380213 </i>
    <i name="e_0_energy">   -118.20858193 </i>
   </energy>
  </scstep>
  <scstep>
   <time name="dav">    7.67    7.74</time>
   <time name="total">    7.75    7.82</time>
   <energy>
    <i name="alphaZ">    844.48149002 </i>
    <i name="ewald"> 173284.24599744 </i>
    <i name="hartreedc">-216039.62365453 </i>
    <i name="XCdc">   1431.82242132 </i>
    <i name="pawpsdc">  41955.14385572 </i>
    <i name="pawaedc"> -45403.11220656 </i>
    <i name="eentropy">      0.03741860 </i>
    <i name="bandstr">   -726.79296321 </i>
    <i name="atom">  44535.60175172 </i>
    <i name="e_fr_energy">   -118.19588949 </i>
    <i name="e_wo_entrp">   -118.23330809 </i>
    <i name="e_0_energy">   -118.20836235 </i>
   </energy>
  </scstep>
  <structure>
   <crystal>
    <varray name="basis" >
     <v>       7.26000023       0.00000000       0.00000000 </v>
     <v>       0.00000000       5.13359547       0.00000000 </v>
     <v>       0.00000000       0.00000000      23.98379135 </v>
    </varray>
    <i name="volume">    893.87360752 </i>
    <varray name="rec_basis" >
     <v>       0.13774104       0.00000000       0.00000000 </v>
     <v>       0.00000000       0.19479525       0.00000000 </v>
     <v>       0.00000000       0.00000000       0.04169483 </v>
    </varray>
   </crystal>
   <varray name="positions" >
    <v>       0.00000000       0.00000000       0.00000000 </v>
    <v>       0.00000000       0.50000000       0.00000000 </v>
    <v>       0.50000000       0.00000000       0.00000000 </v>
    <v>       0.50000000       0.50000000       0.00000000 </v>
    <v>       0.25000000       0.25000000       0.05351109 </v>
    <v>       0.25000000       0.75000000       0.05351109 </v>
    <v>       0.75000000       0.25000000       0.05351109 </v>
    <v>       0.75000000       0.75000000       0.05351109 </v>
    <v>       0.00000000       0.00000000       0.10541371 </v>
    <v>       0.00000000       0.50000000       0.10541371 </v>
    <v>       0.50000000       0.00000000       0.10541371 </v>
    <v>       0.50000000       0.50000000       0.10541371 </v>
    <v>       0.24984916       0.25018597       0.15726941 </v>
    <v>       0.24996390       0.74982795       0.15724158 </v>
    <v>       0.75015084       0.25018597       0.15726941 </v>
    <v>       0.75003610       0.74982795       0.15724158 </v>
    <v>       0.00000000       0.00026390       0.20845732 </v>
    <v>       0.00000000       0.49980066       0.20860053 </v>
    <v>       0.50000000      -0.00001446       0.20899107 </v>
    <v>       0.50000000       0.50000394       0.20872567 </v>
    <v>       0.25015011       0.25055130       0.25947920 </v>
    <v>       0.24968521       0.74942961       0.25957529 </v>
    <v>       0.74984989       0.25055130       0.25947920 </v>
    <v>       0.75031479       0.74942961       0.25957529 </v>
    <v>       0.00000000       0.00072762       0.31405418 </v>
    <v>       0.00000000       0.49922735       0.31278397 </v>
    <v>       0.50000000      -0.00015158       0.31444139 </v>
    <v>       0.50000000       0.49993814       0.31446097 </v>
    <v>       0.25175783       0.24783225       0.36137090 </v>
    <v>       0.25222208       0.75170929       0.36140621 </v>
    <v>       0.74824217       0.24783225       0.36137090 </v>
    <v>       0.74777792       0.75170929       0.36140621 </v>
    <v>       1.00000000       0.50003008       0.42756143 </v>
    <v>       1.00000000       0.60383317       0.45072099 </v>
   </varray>
  </structure>
  <varray name="forces" >
   <v>       0.00000000      -0.00223593       0.45496537 </v>
   <v>       0.00000000       0.00065668       0.45227697 </v>
   <v>       0.00000000      -0.00676239       0.44521547 </v>
   <v>       0.00000000       0.00593708       0.43082644 </v>
   <v>       0.00023959       0.00562051      -0.44569149 </v>
   <v>       0.00434884      -0.00635061      -0.44805881 </v>
   <v>      -0.00023959       0.00562051      -0.44569149 </v>
   <v>      -0.00434884      -0.00635061      -0.44805881 </v>
   <v>       0.00000000      -0.00195361      -0.05050007 </v>
   <v>       0.00000000      -0.00151022      -0.03210254 </v>
   <v>       0.00000000       0.00074097       0.01739855 </v>
   <v>       0.00000000      -0.00034536      -0.00016682 </v>
   <v>       0.01957388      -0.01117613      -0.01929043 </v>
   <v>       0.01283096       0.01012666      -0.00713706 </v>
   <v>      -0.01957388      -0.01117613      -0.01929043 </v>
   <v>      -0.01283096       0.01012666      -0.00713706 </v>
   <v>       0.00000000      -0.00952404       0.01566980 </v>
   <v>       0.00000000       0.00872228      -0.06491531 </v>
   <v>       0.00000000      -0.00723335      -0.02226043 </v>
   <v>       0.00000000       0.00586342      -0.00013843 </v>
   <v>       0.01711779      -0.02567485      -0.03206298 </v>
   <v>       0.01492328       0.02386956      -0.04080121 </v>
   <v>      -0.01711779      -0.02567485      -0.03206298 </v>
   <v>      -0.01492328       0.02386956      -0.04080121 </v>
   <v>       0.00000000      -0.03190502       0.00453059 </v>
   <v>       0.00000000       0.02127029       0.09822600 </v>
   <v>       0.00000000       0.00062724      -0.07577432 </v>
   <v>       0.00000000      -0.00717507      -0.03912896 </v>
   <v>      -0.04981169       0.05623814       0.01575821 </v>
   <v>      -0.06782933      -0.06166993       0.01712561 </v>
   <v>       0.04981169       0.05623814       0.01575821 </v>
   <v>       0.06782933      -0.06166993       0.01712561 </v>
   <v>       0.00000000       0.16478373       0.22545435 </v>
   <v>       0.00000000      -0.12192340       0.06073969 </v>
  </varray>
  <varray name="stress" >
   <v>     -28.11059718       0.00000000       0.00000000 </v>
   <v>       0.00000000     -25.50147864      -0.03887187 </v>
   <v>       0.00000000      -0.03887187      -3.23706722 </v>
  </varray>
  <energy>
   <i name="e_fr_energy">   -130.62737734 </i>
   <i name="e_wo_entrp">   -130.66479594 </i>
   <i name="e_0_energy">   -130.63985021 </i>
  </energy>
  <time name="totalsc">   49.24   49.69</time>
 </calculation>
 <calculation>
  <scstep>
   <time name="dav">    7.87    7.93</time>
   <time name="total">    8.30    8.37</time>
   <energy>
    <i name="alphaZ">    844.48149002 </i>
    <i name="ewald"> 173336.94895254 </i>
    <i name="hartreedc">-216092.13122375 </i>
    <i name="XCdc">   1431.85128877 </i>
    <i name="pawpsdc">  41956.01604862 </i>
    <i name="pawaedc"> -45404.07941978 </i>
    <i name="eentropy">      0.03742275 </i>
    <i name="bandstr">   -726.92546515 </i>
    <i name="atom">  44535.60175172 </i>
    <i name="e_fr_energy">   -118.19915426 </i>
    <i name="e_wo_entrp">   -118.23657701 </i>
    <i name="e_0_energy">   -118.21162851 </i>
   </energy>
  </scstep>
  <scstep>
   <time name="dav">   11.32   11.41</time>
   <time name="total">   11.76   11.86</time>
   <energy>
    <i name="e_fr_energy">   -118.20130042 </i>
    <i name="e_wo_entrp">   -118.23901574 </i>
    <i name="e_0_energy">   -118.21387219 </i>
   </energy>
  </scstep>
  <scstep>
   <time name="dav">    8.46    8.53</time>
   <time name="total">    8.89    8.96</time>
   <energy>
    <i name="e_fr_energy">   -118.20021514 </i>
    <i name="e_wo_entrp">   -118.23810551 </i>
    <i name="e_0_energy">   -118.21284526 </i>
   </energy>
  </scstep>
  <scstep>
   <time name="dav">    7.74    7.81</time>
   <time name="total">    8.18    8.25</time>
   <energy>
    <i name="e_fr_energy">   -118.19986773 </i>
    <i name="e_wo_entrp">   -118.23713544 </i>
    <i name="e_0_energy">   -118.21229030 </i>
   </energy>
  </scstep>
  <scstep>
   <time name="dav">    8.03    8.10</time>
   <time name="total">    8.11    8.18</time>
   <energy>
    <i name="alphaZ">    844.48149002 </i>
    <i name="ewald"> 173336.94895254 </i>
    <i name="hartreedc">-216090.99965929 </i>
    <i name="XCdc">   1431.87021510 </i>
    <i name="pawpsdc">  41960.79319295 </i>
    <i name="pawaedc"> -45408.93343519 </i>
    <i name="eentropy">      0.03799022 </i>
    <i name="bandstr">   -728.00030002 </i>
    <i name="atom">  44535.60175172 </i>
    <i name="e_fr_energy">   -118.19980194 </i>
    <i name="e_wo_entrp">   -118.23779216 </i>
    <i name="e_0_energy">   -118.21246535 </i>
   </energy>
  </scstep>
  <structure>
   <crystal>
    <varray name="basis" >
     <v>       7.26000023       0.00000000       0.00000000 </v>
     <v>       0.00000000       5.13359547       0.00000000 </v>
     <v>       0.00000000       0.00000000      23.98379135 </v>
    </varray>
    <i name="volume">    893.87360752 </i>
    <varray name="rec_basis" >
     <v>       0.13774104       0.00000000       0.00000000 </v>
     <v>       0.00000000       0.19479525       0.00000000 </v>
     <v>       0.00000000       0.00000000       0.04169483 </v>
    </varray>
   </crystal>
   <varray name="positions" >
    <v>       0.00000000       0.00000000       0.00000000 </v>
    <v>       0.00000000       0.50000000       0.00000000 </v>
    <v>       0.50000000       0.00000000       0.00000000 </v>
    <v>       0.50000000       0.50000000       0.00000000 </v>
    <v>       0.25000000       0.25000000       0.05351109 </v>
    <v>       0.25000000       0.75000000       0.05351109 </v>
    <v>       0.75000000       0.25000000       0.05351109 </v>
    <v>       0.75000000       0.75000000       0.05351109 </v>
    <v>       0.00000000       0.00000000       0.10541371 </v>
    <v>       0.00000000       0.50000000       0.10541371 </v>
    <v>       0.50000000       0.00000000       0.10541371 </v>
    <v>       0.50000000       0.50000000       0.10541371 </v>
    <v>       0.24996984       0.25010466       0.15725195 </v>
    <v>       0.25005840       0.74990108       0.15724697 </v>
    <v>       0.75003016       0.25010466       0.15725195 </v>
    <v>       0.74994160       0.74990108       0.15724697 </v>
    <v>       0.00000000       0.00022036       0.20844555 </v>
    <v>       0.00000000       0.49985117       0.20842682 </v>
    <v>       0.50000000      -0.00010038       0.20901781 </v>
    <v>       0.50000000       0.50007198       0.20874131 </v>
    <v>       0.25032545       0.25039323       0.25940030 </v>
    <v>       0.24972873       0.74956263       0.25949859 </v>
    <v>       0.74967455       0.25039323       0.25940030 </v>
    <v>       0.75027127       0.74956263       0.25949859 </v>
    <v>       0.00000000       0.00054215       0.31403953 </v>
    <v>       0.00000000       0.49928136       0.31268869 </v>
    <v>       0.50000000      -0.00018110       0.31432605 </v>
    <v>       0.50000000       0.49984087       0.31443976 </v>
    <v>       0.25178490       0.24794558       0.36130109 </v>
    <v>       0.25221626       0.75142167       0.36134880 </v>
    <v>       0.74821510       0.24794558       0.36130109 </v>
    <v>       0.74778374       0.75142167       0.36134880 </v>
    <v>       1.00000000       0.50231890       0.42835416 </v>
    <v>       1.00000000       0.60229994       0.45122324 </v>
   </varray>
  </structure>
  <varray name="forces" >
   <v>       0.00000000      -0.00187047       0.46089813 </v>
   <v>       0.00000000       0.00115599       0.45796297 </v>
   <v>       0.00000000      -0.00580036       0.44965972 </v>
   <v>       0.00000000       0.00579857       0.43650785 </v>
   <v>      -0.00050021       0.00565034      -0.44754403 </v>
   <v>       0.00336640      -0.00559745      -0.44860981 </v>
   <v>       0.00050021       0.00565034      -0.44754403 </v>
   <v>      -0.00336640      -0.00559745      -0.44860981 </v>
   <v>       0.00000000      -0.00155399      -0.05072505 </v>
   <v>       0.00000000      -0.00103934      -0.04070725 </v>
   <v>       0.00000000       0.00055243       0.01247173 </v>
   <v>       0.00000000       0.00055428      -0.00312233 </v>
   <v>       0.00944548      -0.00447328      -0.01327830 </v>
   <v>       0.00586771       0.00463968      -0.00979397 </v>
   <v>      -0.00944548      -0.00447328      -0.01327830 </v>
   <v>      -0.00586771       0.00463968      -0.00979397 </v>
   <v>       0.00000000      -0.00126098       0.00728207 </v>
   <v>       0.00000000       0.00150699      -0.03166788 </v>
   <v>       0.00000000      -0.00238756      -0.02248015 </v>
   <v>       0.00000000       0.00204506      -0.00271963 </v>
   <v>       0.00215199      -0.00959562      -0.01904801 </v>
   <v>       0.00519773       0.00821426      -0.02142491 </v>
   <v>      -0.00215199      -0.00959562      -0.01904801 </v>
   <v>      -0.00519773       0.00821426      -0.02142491 </v>
   <v>       0.00000000      -0.01483148      -0.00350630 </v>
   <v>       0.00000000       0.00910074       0.05301928 </v>
   <v>       0.00000000      -0.00248482      -0.04376623 </v>
   <v>       0.00000000      -0.00260841      -0.02550895 </v>
   <v>      -0.02834849       0.03056607      -0.00163866 </v>
   <v>      -0.03651258      -0.03604614      -0.00103156 </v>
   <v>       0.02834849       0.03056607      -0.00163866 </v>
   <v>       0.03651258      -0.03604614      -0.00103156 </v>
   <v>       0.00000000      -0.19806055      -0.15707656 </v>
   <v>       0.00000000       0.22446819       0.42821709 </v>
  </varray>
  <varray name="stress" >
   <v>     -29.75358379       0.00000000       0.00000000 </v>
   <v>       0.00000000     -26.77575765       0.30863025 </v>
   <v>       0.00000000       0.30863014      -4.08102149 </v>
  </varray>
  <energy>
   <i name="e_fr_energy">   -130.63081849 </i>
   <i name="e_wo_entrp">   -130.66880871 </i>
   <i name="e_0_energy">   -130.64348189 </i>
  </energy>
  <time name="totalsc">   60.12   60.63</time>
 </calculation>
 <calculation>
  <scstep>
   <time name="dav">    9.70    9.79</time>
   <time name="total">   10.13   10.22</time>
   <energy>
    <i name="alphaZ">    844.48149002 </i>
    <i name="ewald"> 173329.71879436 </i>
    <i name="hartreedc">-216084.30094089 </i>
    <i name="XCdc">   1431.86813309 </i>
    <i name="pawpsdc">  41960.86580224 </i>
    <i name="pawaedc"> -45409.02379689 </i>
    <i name="eentropy">      0.03761426 </i>
    <i name="bandstr">   -727.44874100 </i>
    <i name="atom">  44535.60175172 </i>
    <i name="e_fr_energy">   -118.19989307 </i>
    <i name="e_wo_entrp">   -118.23750733 </i>
    <i name="e_0_energy">   -118.21243116 </i>
   </energy>
  </scstep>
  <scstep>
   <time name="dav">    5.78    5.83</time>
   <time name="total">    5.86    5.91</time>
   <energy>
    <i name="alphaZ">    844.48149002 </i>
[...]
       <r>    10.5186    -0.0005   232.0000 </r>
       <r>    10.5923    -0.0001   232.0000 </r>
       <r>    10.6660    -0.0000   232.0000 </r>
       <r>    10.7398    -0.0000   232.0000 </r>
       <r>    10.8135    -0.0000   232.0000 </r>
       <r>    10.8873    -0.0000   232.0000 </r>
       <r>    10.9610    -0.0000   232.0000 </r>
       <r>    11.0347    -0.0000   232.0000 </r>
       <r>    11.1085    -0.0000   232.0000 </r>
       <r>    11.1822     0.0000   232.0000 </r>
       <r>    11.2560     0.0000   232.0000 </r>
       <r>    11.3297     0.0000   232.0000 </r>
       <r>    11.4034     0.0000   232.0000 </r>
       <r>    11.4772     0.0000   232.0000 </r>
       <r>    11.5509     0.0000   232.0000 </r>
       <r>    11.6246     0.0000   232.0000 </r>
       <r>    11.6984     0.0000   232.0000 </r>
       <r>    11.7721     0.0000   232.0000 </r>
       <r>    11.8459     0.0000   232.0000 </r>
      </set>
      <set comment="spin 2">
       <r>   -10.2758     0.0000     0.0000 </r>
       <r>   -10.2020     0.0000     0.0000 </r>
       <r>   -10.1283     0.0000     0.0000 </r>
       <r>   -10.0545     0.0000     0.0000 </r>
       <r>    -9.9808     0.0000     0.0000 </r>
       <r>    -9.9071    -0.0000    -0.0000 </r>
       <r>    -9.8333    -0.0000    -0.0000 </r>
       <r>    -9.7596    -0.0000    -0.0000 </r>
       <r>    -9.6858    -0.0000    -0.0000 </r>
       <r>    -9.6121    -0.0000    -0.0000 </r>
       <r>    -9.5384    -0.0000    -0.0000 </r>
       <r>    -9.4646    -0.0000    -0.0000 </r>
       <r>    -9.3909    -0.0000    -0.0000 </r>
       <r>    -9.3171    -0.0000    -0.0000 </r>
       <r>    -9.2434    -0.0000    -0.0000 </r>
       <r>    -9.1697    -0.0000    -0.0000 </r>
       <r>    -9.0959    -0.0000    -0.0000 </r>
       <r>    -9.0222    -0.0000    -0.0000 </r>
       <r>    -8.9485    -0.0000    -0.0000 </r>
       <r>    -8.8747    -0.0001    -0.0000 </r>
       <r>    -8.8010    -0.0008    -0.0001 </r>
       <r>    -8.7272    -0.0038    -0.0004 </r>
       <r>    -8.6535    -0.0122    -0.0013 </r>
       <r>    -8.5798    -0.0234    -0.0030 </r>
       <r>    -8.5060    -0.0125    -0.0039 </r>
       <r>    -8.4323     0.0700     0.0013 </r>
       <r>    -8.3585     0.2354     0.0186 </r>
       <r>    -8.2848     0.3860     0.0471 </r>
       <r>    -8.2111     0.4009     0.0766 </r>
       <r>    -8.1373     0.3414     0.1018 </r>
       <r>    -8.0636     0.4228     0.1330 </r>
       <r>    -7.9899     0.6811     0.1832 </r>
       <r>    -7.9161     0.8484     0.2458 </r>
       <r>    -7.8424     0.7372     0.3001 </r>
       <r>    -7.7686     0.5562     0.3412 </r>
       <r>    -7.6949     0.5866     0.3844 </r>
       <r>    -7.6212     0.7302     0.4383 </r>
       <r>    -7.5474     0.7366     0.4926 </r>
       <r>    -7.4737     0.7588     0.5485 </r>
       <r>    -7.3999     1.1888     0.6362 </r>
       <r>    -7.3262     1.8821     0.7750 </r>
       <r>    -7.2525     2.1397     0.9327 </r>
       <r>    -7.1787     1.7302     1.0603 </r>
       <r>    -7.1050     1.3081     1.1568 </r>
       <r>    -7.0312     1.4102     1.2608 </r>
       <r>    -6.9575     1.6572     1.3830 </r>
       <r>    -6.8838     1.4481     1.4897 </r>
       <r>    -6.8100     0.9041     1.5564 </r>
       <r>    -6.7363     0.5674     1.5983 </r>
       <r>    -6.6626     0.5962     1.6422 </r>
       <r>    -6.5888     0.8675     1.7062 </r>
       <r>    -6.5151     1.5236     1.8185 </r>
       <r>    -6.4413     2.6285     2.0124 </r>
       <r>    -6.3676     3.4822     2.2691 </r>
       <r>    -6.2939     3.2385     2.5079 </r>
       <r>    -6.2201     2.1259     2.6647 </r>
       <r>    -6.1464     1.1473     2.7493 </r>
       <r>    -6.0726     0.7886     2.8074 </r>
       <r>    -5.9989     0.8123     2.8673 </r>
       <r>    -5.9252     0.9473     2.9372 </r>
       <r>    -5.8514     1.1755     3.0239 </r>
       <r>    -5.7777     1.7359     3.1519 </r>
       <r>    -5.7040     3.0405     3.3761 </r>
       <r>    -5.6302     5.0237     3.7465 </r>
       <r>    -5.5565     6.6878     4.2397 </r>
       <r>    -5.4827     6.9275     4.7505 </r>
       <r>    -5.4090     5.6213     5.1650 </r>
       <r>    -5.3353     3.6493     5.4341 </r>
       <r>    -5.2615     2.2566     5.6005 </r>
       <r>    -5.1878     2.4072     5.7780 </r>
       <r>    -5.1140     4.1345     6.0829 </r>
       <r>    -5.0403     6.2976     6.5472 </r>
       <r>    -4.9666     7.3696     7.0907 </r>
       <r>    -4.8928     6.7161     7.5859 </r>
       <r>    -4.8191     4.8525     7.9437 </r>
       <r>    -4.7453     2.6403     8.1384 </r>
       <r>    -4.6716     0.8313     8.1997 </r>
       <r>    -4.5979     0.1423     8.2102 </r>
       <r>    -4.5241     1.0896     8.2905 </r>
       <r>    -4.4504     3.5771     8.5543 </r>
       <r>    -4.3767     6.6838     9.0472 </r>
       <r>    -4.3029     9.0118     9.7117 </r>
       <r>    -4.2292     9.7063    10.4274 </r>
       <r>    -4.1554     9.4032    11.1208 </r>
       <r>    -4.0817     9.7953    11.8431 </r>
       <r>    -4.0080    11.8276    12.7152 </r>
       <r>    -3.9342    14.5426    13.7876 </r>
       <r>    -3.8605    16.3282    14.9916 </r>
       <r>    -3.7867    17.1329    16.2550 </r>
       <r>    -3.7130    18.1935    17.5965 </r>
       <r>    -3.6393    19.6976    19.0490 </r>
       <r>    -3.5655    20.7847    20.5816 </r>
       <r>    -3.4918    21.9563    22.2007 </r>
       <r>    -3.4181    25.0463    24.0476 </r>
       <r>    -3.3443    30.0404    26.2627 </r>
       <r>    -3.2706    33.9515    28.7662 </r>
       <r>    -3.1968    34.2860    31.2944 </r>
       <r>    -3.1231    32.1125    33.6624 </r>
       <r>    -3.0494    30.0004    35.8746 </r>
       <r>    -2.9756    28.6196    37.9849 </r>
       <r>    -2.9019    27.6050    40.0205 </r>
       <r>    -2.8281    28.1383    42.0954 </r>
       <r>    -2.7544    31.8851    44.4465 </r>
       <r>    -2.6807    37.9834    47.2474 </r>
       <r>    -2.6069    43.2807    50.4388 </r>
       <r>    -2.5332    45.6204    53.8028 </r>
       <r>    -2.4594    45.7809    57.1787 </r>
       <r>    -2.3857    46.3433    60.5960 </r>
       <r>    -2.3120    49.3227    64.2329 </r>
       <r>    -2.2382    54.6796    68.2650 </r>
       <r>    -2.1645    60.4499    72.7225 </r>
       <r>    -2.0908    63.8992    77.4343 </r>
       <r>    -2.0170    63.1882    82.0937 </r>
       <r>    -1.9433    58.8553    86.4336 </r>
       <r>    -1.8695    53.3475    90.3674 </r>
       <r>    -1.7958    48.8884    93.9724 </r>
       <r>    -1.7221    46.3759    97.3921 </r>
       <r>    -1.6483    46.1085   100.7920 </r>
       <r>    -1.5746    48.4896   104.3676 </r>
       <r>    -1.5008    52.9912   108.2751 </r>
       <r>    -1.4271    57.1849   112.4919 </r>
       <r>    -1.3534    59.0958   116.8495 </r>
       <r>    -1.2796    59.9055   121.2669 </r>
       <r>    -1.2059    61.6707   125.8144 </r>
       <r>    -1.1322    63.8613   130.5234 </r>
       <r>    -1.0584    65.5319   135.3557 </r>
       <r>    -0.9847    68.8564   140.4330 </r>
       <r>    -0.9109    76.0002   146.0372 </r>
       <r>    -0.8372    83.4060   152.1875 </r>
       <r>    -0.7635    83.0530   158.3117 </r>
       <r>    -0.6897    70.1549   163.4848 </r>
       <r>    -0.6160    48.4120   167.0546 </r>
       <r>    -0.5422    27.0550   169.0496 </r>
       <r>    -0.4685    13.1553   170.0197 </r>
       <r>    -0.3948     7.4841   170.5716 </r>
       <r>    -0.3210     6.5938   171.0578 </r>
       <r>    -0.2473     6.6914   171.5512 </r>
       <r>    -0.1735     5.6900   171.9708 </r>
       <r>    -0.0998     3.5036   172.2291 </r>
       <r>    -0.0261     1.3179   172.3263 </r>
       <r>     0.0477     0.3805   172.3544 </r>
       <r>     0.1214     1.1223   172.4371 </r>
       <r>     0.1951     3.0184   172.6597 </r>
       <r>     0.2689     5.0528   173.0323 </r>
       <r>     0.3426     6.5115   173.5125 </r>
       <r>     0.4164     7.5263   174.0674 </r>
       <r>     0.4901     8.6378   174.7044 </r>
       <r>     0.5638     9.6495   175.4159 </r>
       <r>     0.6376     9.5111   176.1172 </r>
       <r>     0.7113     7.8339   176.6949 </r>
       <r>     0.7851     5.7112   177.1160 </r>
       <r>     0.8588     4.4551   177.4446 </r>
       <r>     0.9325     4.3308   177.7639 </r>
       <r>     1.0063     4.8675   178.1228 </r>
       <r>     1.0800     5.5386   178.5312 </r>
       <r>     1.1537     5.7555   178.9556 </r>
       <r>     1.2275     4.9627   179.3216 </r>
       <r>     1.3012     3.3468   179.5684 </r>
       <r>     1.3750     2.0795   179.7217 </r>
       <r>     1.4487     2.3291   179.8935 </r>
       <r>     1.5224     3.9305   180.1833 </r>
       <r>     1.5962     5.3289   180.5762 </r>
       <r>     1.6699     5.3377   180.9698 </r>
       <r>     1.7437     4.6328   181.3114 </r>
       <r>     1.8174     4.6472   181.6541 </r>
       <r>     1.8911     5.4786   182.0581 </r>
       <r>     1.9649     6.0893   182.5071 </r>
       <r>     2.0386     6.0814   182.9556 </r>
       <r>     2.1124     5.9550   183.3947 </r>
       <r>     2.1861     5.9513   183.8335 </r>
       <r>     2.2598     5.7777   184.2596 </r>
       <r>     2.3336     5.3627   184.6550 </r>
       <r>     2.4073     5.1149   185.0322 </r>
       <r>     2.4810     5.2754   185.4212 </r>
       <r>     2.5548     5.4053   185.8197 </r>
       <r>     2.6285     4.9133   186.1820 </r>
       <r>     2.7023     3.9079   186.4702 </r>
       <r>     2.7760     3.1116   186.6996 </r>
       <r>     2.8497     3.2107   186.9364 </r>
       <r>     2.9235     4.4638   187.2655 </r>
       <r>     2.9972     6.2254   187.7246 </r>
       <r>     3.0710     6.8957   188.2331 </r>
       <r>     3.1447     5.5072   188.6392 </r>
       <r>     3.2184     3.1919   188.8745 </r>
       <r>     3.2922     1.9844   189.0209 </r>
       <r>     3.3659     2.5806   189.2112 </r>
       <r>     3.4396     4.0393   189.5090 </r>
       <r>     3.5134     5.0820   189.8838 </r>
       <r>     3.5871     5.1370   190.2625 </r>
       <r>     3.6609     4.5972   190.6015 </r>
       <r>     3.7346     4.2907   190.9179 </r>
       <r>     3.8083     4.5344   191.2523 </r>
       <r>     3.8821     4.9637   191.6183 </r>
       <r>     3.9558     5.1909   192.0011 </r>
       <r>     4.0296     5.0957   192.3768 </r>
       <r>     4.1033     4.6661   192.7209 </r>
       <r>     4.1770     3.9885   193.0150 </r>
       <r>     4.2508     3.3680   193.2634 </r>
       <r>     4.3245     3.2364   193.5020 </r>
       <r>     4.3983     3.6250   193.7693 </r>
       <r>     4.4720     3.9067   194.0574 </r>
       <r>     4.5457     3.7086   194.3308 </r>
       <r>     4.6195     3.7694   194.6088 </r>
       <r>     4.6932     4.9529   194.9740 </r>
       <r>     4.7669     6.6692   195.4658 </r>
       <r>     4.8407     7.2998   196.0041 </r>
       <r>     4.9144     6.1977   196.4611 </r>
       <r>     4.9882     4.3666   196.7831 </r>
       <r>     5.0619     3.0615   197.0088 </r>
       <r>     5.1356     2.6890   197.2071 </r>
       <r>     5.2094     3.2479   197.4466 </r>
       <r>     5.2831     4.6806   197.7918 </r>
       <r>     5.3569     6.3378   198.2591 </r>
       <r>     5.4306     7.2826   198.7961 </r>
       <r>     5.5043     7.5247   199.3510 </r>
       <r>     5.5781     7.6743   199.9169 </r>
       <r>     5.6518     7.5922   200.4767 </r>
       <r>     5.7255     6.9436   200.9887 </r>
       <r>     5.7993     6.4478   201.4642 </r>
       <r>     5.8730     7.0601   201.9848 </r>
       <r>     5.9468     8.4249   202.6060 </r>
       <r>     6.0205     9.2081   203.2850 </r>
       <r>     6.0942     8.6757   203.9247 </r>
       <r>     6.1680     7.2984   204.4629 </r>
       <r>     6.2417     6.0942   204.9123 </r>
       <r>     6.3155     5.8099   205.3407 </r>
       <r>     6.3892     6.4607   205.8171 </r>
       <r>     6.4629     7.4199   206.3642 </r>
       <r>     6.5367     7.9482   206.9503 </r>
       <r>     6.6104     7.7300   207.5203 </r>
       <r>     6.6842     7.1754   208.0494 </r>
       <r>     6.7579     7.0542   208.5696 </r>
       <r>     6.8316     7.5524   209.1265 </r>
       <r>     6.9054     7.9772   209.7147 </r>
       <r>     6.9791     7.6103   210.2759 </r>
       <r>     7.0528     6.5512   210.7590 </r>
       <r>     7.1266     5.5486   211.1681 </r>
       <r>     7.2003     5.3356   211.5616 </r>
       <r>     7.2741     6.2356   212.0214 </r>
       <r>     7.3478     7.8544   212.6006 </r>
       <r>     7.4215     9.0541   213.2682 </r>
       <r>     7.4953     8.9114   213.9253 </r>
       <r>     7.5690     7.7807   214.4990 </r>
       <r>     7.6428     6.8858   215.0068 </r>
       <r>     7.7165     6.9663   215.5205 </r>
       <r>     7.7902     7.8718   216.1009 </r>
       <r>     7.8640     9.2391   216.7822 </r>
       <r>     7.9377    10.5865   217.5628 </r>
       <r>     8.0114    10.9453   218.3699 </r>
       <r>     8.0852     9.7915   219.0920 </r>
       <r>     8.1589     8.1687   219.6943 </r>
       <r>     8.2327     7.5215   220.2489 </r>
       <r>     8.3064     7.8279   220.8261 </r>
       <r>     8.3801     7.9980   221.4159 </r>
       <r>     8.4539     7.4922   221.9684 </r>
       <r>     8.5276     6.7524   222.4663 </r>
       <r>     8.6014     6.5728   222.9509 </r>
       <r>     8.6751     7.3920   223.4960 </r>
       <r>     8.7488     8.8780   224.1507 </r>
       <r>     8.8226    10.1628   224.9001 </r>
       <r>     8.8963    10.5733   225.6797 </r>
       <r>     8.9701    10.1101   226.4252 </r>
       <r>     9.0438     9.2709   227.1089 </r>
       <r>     9.1175     8.4910   227.7350 </r>
       <r>     9.1913     7.8472   228.3136 </r>
       <r>     9.2650     7.2331   228.8470 </r>
       <r>     9.3387     6.5493   229.3299 </r>
       <r>     9.4125     5.8127   229.7585 </r>
       <r>     9.4862     5.3114   230.1502 </r>
       <r>     9.5600     5.2837   230.5398 </r>
       <r>     9.6337     5.3746   230.9361 </r>
       <r>     9.7074     4.9972   231.3046 </r>
       <r>     9.7812     4.0792   231.6054 </r>
       <r>     9.8549     2.9385   231.8221 </r>
       <r>     9.9287     1.7927   231.9543 </r>
       <r>    10.0024     0.7888   232.0124 </r>
       <r>    10.0761     0.1311   232.0221 </r>
       <r>    10.1499    -0.1153   232.0136 </r>
       <r>    10.2236    -0.1123   232.0053 </r>
       <r>    10.2973    -0.0524   232.0015 </r>
       <r>    10.3711    -0.0159   232.0003 </r>
       <r>    10.4448    -0.0034   232.0000 </r>
       <r>    10.5186    -0.0005   232.0000 </r>
       <r>    10.5923    -0.0001   232.0000 </r>
       <r>    10.6660    -0.0000   232.0000 </r>
       <r>    10.7398    -0.0000   232.0000 </r>
       <r>    10.8135    -0.0000   232.0000 </r>
       <r>    10.8873    -0.0000   232.0000 </r>
       <r>    10.9610    -0.0000   232.0000 </r>
       <r>    11.0347    -0.0000   232.0000 </r>
       <r>    11.1085    -0.0000   232.0000 </r>
       <r>    11.1822     0.0000   232.0000 </r>
       <r>    11.2560     0.0000   232.0000 </r>
       <r>    11.3297     0.0000   232.0000 </r>
       <r>    11.4034     0.0000   232.0000 </r>
       <r>    11.4772     0.0000   232.0000 </r>
       <r>    11.5509     0.0000   232.0000 </r>
       <r>    11.6246     0.0000   232.0000 </r>
       <r>    11.6984     0.0000   232.0000 </r>
       <r>    11.7721     0.0000   232.0000 </r>
       <r>    11.8459     0.0000   232.0000 </r>
      </set>
     </set>
    </array>
   </total>
  </dos>
 </calculation>
 <structure name="finalpos" >
  <crystal>
   <varray name="basis" >
    <v>       7.26000023       0.00000000       0.00000000 </v>
    <v>       0.00000000       5.13359547       0.00000000 </v>
    <v>       0.00000000       0.00000000      23.98379135 </v>
   </varray>
   <i name="volume">    893.87360752 </i>
   <varray name="rec_basis" >
    <v>       0.13774104       0.00000000       0.00000000 </v>
    <v>       0.00000000       0.19479525       0.00000000 </v>
    <v>       0.00000000       0.00000000       0.04169483 </v>
   </varray>
  </crystal>
  <varray name="positions" >
   <v>       0.00000000       0.00000000       0.00000000 </v>
   <v>       0.00000000       0.50000000       0.00000000 </v>
   <v>       0.50000000       0.00000000       0.00000000 </v>
   <v>       0.50000000       0.50000000       0.00000000 </v>
   <v>       0.25000000       0.25000000       0.05351109 </v>
   <v>       0.25000000       0.75000000       0.05351109 </v>
   <v>       0.75000000       0.25000000       0.05351109 </v>
   <v>       0.75000000       0.75000000       0.05351109 </v>
   <v>       0.00000000       0.00000000       0.10541371 </v>
   <v>       0.00000000       0.50000000       0.10541371 </v>
   <v>       0.50000000       0.00000000       0.10541371 </v>
   <v>       0.50000000       0.50000000       0.10541371 </v>
   <v>       0.25012439       0.24955907       0.15717669 </v>
   <v>       0.25008628       0.74954884       0.15717361 </v>
   <v>       0.74987561       0.24955907       0.15717669 </v>
   <v>       0.74991372       0.74954884       0.15717361 </v>
   <v>       0.00000000      -0.00071895       0.20862581 </v>
   <v>       0.00000000       0.49907736       0.20860163 </v>
   <v>       0.50000000      -0.00090187       0.20875665 </v>
   <v>       0.50000000       0.49920792       0.20874699 </v>
   <v>       0.24989074       0.24903238       0.25947298 </v>
   <v>       0.24977408       0.74882220       0.25949307 </v>
   <v>       0.75010926       0.24903238       0.25947298 </v>
   <v>       0.75022592       0.74882220       0.25949307 </v>
   <v>       0.00000000      -0.00118864       0.31427164 </v>
   <v>       0.00000000       0.49866932       0.31402940 </v>
   <v>       0.50000000      -0.00120090       0.31423845 </v>
   <v>       0.50000000       0.49874771       0.31432962 </v>
   <v>       0.25022001       0.24849411       0.36177716 </v>
   <v>       0.25044431       0.74883753       0.36177410 </v>
   <v>       0.74977999       0.24849411       0.36177716 </v>
   <v>       0.74955569       0.74883753       0.36177410 </v>
   <v>       1.00000000       0.55041909       0.44744936 </v>
   <v>       1.00000000       0.57753774       0.47852559 </v>
  </varray>
  <varray name="selective"  type="logical" >
   <v type="logical" >  F  F  F </v>
   <v type="logical" >  F  F  F </v>
   <v type="logical" >  F  F  F </v>
   <v type="logical" >  F  F  F </v>
   <v type="logical" >  F  F  F </v>
   <v type="logical" >  F  F  F </v>
   <v type="logical" >  F  F  F </v>
   <v type="logical" >  F  F  F </v>
   <v type="logical" >  F  F  F </v>
   <v type="logical" >  F  F  F </v>
   <v type="logical" >  F  F  F </v>
   <v type="logical" >  F  F  F </v>
   <v type="logical" >  T  T  T </v>
   <v type="logical" >  T  T  T </v>
   <v type="logical" >  T  T  T </v>
   <v type="logical" >  T  T  T </v>
   <v type="logical" >  T  T  T </v>
   <v type="logical" >  T  T  T </v>
   <v type="logical" >  T  T  T </v>
   <v type="logical" >  T  T  T </v>
   <v type="logical" >  T  T  T </v>
   <v type="logical" >  T  T  T </v>
   <v type="logical" >  T  T  T </v>
   <v type="logical" >  T  T  T </v>
   <v type="logical" >  T  T  T </v>
   <v type="logical" >  T  T  T </v>
   <v type="logical" >  T  T  T </v>
   <v type="logical" >  T  T  T </v>
   <v type="logical" >  T  T  T </v>
   <v type="logical" >  T  T  T </v>
   <v type="logical" >  T  T  T </v>
   <v type="logical" >  T  T  T </v>
   <v type="logical" >  T  T  T </v>
   <v type="logical" >  T  T  T </v>
  </varray>
  <nose>
   <v>      -3.00000000       0.00000000       0.00010000       0.00010000 </v>
  </nose>
 </structure>
</modeling>
