unknown system                          
           1
     7.260000    0.000000    0.000000
     0.000000    5.133595    0.000000
     0.000000    0.000000   23.983791
   Cu   H 
    32     2
Direct configuration=     1
   0.00000000  0.00000000  0.00000000
   0.00000000  0.50000000  0.00000000
   0.50000000  0.00000000  0.00000000
   0.50000000  0.50000000  0.00000000
   0.25000000  0.25000000  0.05351109
   0.25000000  0.75000000  0.05351109
   0.75000000  0.25000000  0.05351109
   0.75000000  0.75000000  0.05351109
   0.00000000  0.00000000  0.10541371
   0.00000000  0.50000000  0.10541371
   0.50000000  0.00000000  0.10541371
   0.50000000  0.50000000  0.10541371
   0.25000000  0.25000000  0.15715010
   0.25000000  0.75000000  0.15715010
   0.75000000  0.25000000  0.15715010
   0.75000000  0.75000000  0.15715010
   0.00000000  0.00000000  0.20866257
   0.00000000  0.50000000  0.20866257
   0.50000000  0.00000000  0.20866257
   0.50000000  0.50000000  0.20866257
   0.25000000  0.25000000  0.25947965
   0.25000000  0.75000000  0.25947965
   0.75000000  0.25000000  0.25947965
   0.75000000  0.75000000  0.25947965
   0.00000000  0.00000000  0.31415415
   0.00000000  0.50000000  0.31415415
   0.50000000  0.00000000  0.31415415
   0.50000000  0.50000000  0.31415415
   0.25000000  0.25000000  0.36181799
   0.25000000  0.75000000  0.36181799
   0.75000000  0.25000000  0.36181799
   0.75000000  0.75000000  0.36181799
   1.00000000  0.50000000  0.42690792
   1.00000000  0.60275482  0.44890201
Direct configuration=     2
   0.00000000  0.00000000  0.00000000
   0.00000000  0.50000000  0.00000000
   0.50000000  0.00000000  0.00000000
   0.50000000  0.50000000  0.00000000
   0.25000000  0.25000000  0.05351109
   0.25000000  0.75000000  0.05351109
   0.75000000  0.25000000  0.05351109
   0.75000000  0.75000000  0.05351109
   0.00000000  0.00000000  0.10541371
   0.00000000  0.50000000  0.10541371
   0.50000000  0.00000000  0.10541371
   0.50000000  0.50000000  0.10541371
   0.24995588  0.25004933  0.15718030
   0.24998769  0.74995183  0.15717187
   0.75004412  0.25004933  0.15718030
   0.75001231  0.74995183  0.15717187
   0.00000000  0.00007060  0.20860469
   0.00000000  0.49994443  0.20865231
   0.50000000 -0.00000173  0.20874686
   0.50000000  0.49999698  0.20867522
   0.25003061  0.25015941  0.25948650
   0.24990977  0.74983456  0.25951282
   0.74996939  0.25015941  0.25948650
   0.75009023  0.74983456  0.25951282
   0.00000000  0.00020518  0.31413685
   0.00000000  0.49978066  0.31377739
   0.50000000 -0.00004405  0.31424286
   0.50000000  0.49998889  0.31424581
   0.25049543  0.24937820  0.36168828
   0.25063422  0.75050286  0.36169427
   0.74950457  0.24937820  0.36168828
   0.74936578  0.75050286  0.36169427
   1.00000000  0.49677789  0.42641416
   1.00000000  0.60629018  0.45009891
Direct configuration=     3
   0.00000000  0.00000000  0.00000000
   0.00000000  0.50000000  0.00000000
   0.50000000  0.00000000  0.00000000
   0.50000000  0.50000000  0.00000000
   0.25000000  0.25000000  0.05351109
   0.25000000  0.75000000  0.05351109
   0.75000000  0.25000000  0.05351109
   0.75000000  0.75000000  0.05351109
   0.00000000  0.00000000  0.10541371
   0.00000000  0.50000000  0.10541371
   0.50000000  0.00000000  0.10541371
   0.50000000  0.50000000  0.10541371
   0.24997986  0.25002252  0.15716388
   0.24999438  0.74997801  0.15716004
   0.75002014  0.25002252  0.15716388
   0.75000562  0.74997801  0.15716004
   0.00000000  0.00003223  0.20863615
   0.00000000  0.49997463  0.20865789
   0.50000000 -0.00000079  0.20870105
   0.50000000  0.49999862  0.20866834
   0.25001398  0.25007277  0.25948278
   0.24995881  0.74992448  0.25949479
   0.74998602  0.25007277  0.25948278
   0.75004119  0.74992448  0.25949479
   0.00000000  0.00009367  0.31414625
   0.00000000  0.49989987  0.31398215
   0.50000000 -0.00002011  0.31419465
   0.50000000  0.49999493  0.31419599
   0.25022617  0.24971614  0.36175878
   0.25028953  0.75022956  0.36176151
   0.74977383  0.24971614  0.36175878
   0.74971047  0.75022956  0.36176151
   1.00000000  0.49852906  0.42668251
   1.00000000  0.60436876  0.44944841
Direct configuration=     4
   0.00000000  0.00000000  0.00000000
   0.00000000  0.50000000  0.00000000
   0.50000000  0.00000000  0.00000000
   0.50000000  0.50000000  0.00000000
   0.25000000  0.25000000  0.05351109
   0.25000000  0.75000000  0.05351109
   0.75000000  0.25000000  0.05351109
   0.75000000  0.75000000  0.05351109
   0.00000000  0.00000000  0.10541371
   0.00000000  0.50000000  0.10541371
   0.50000000  0.00000000  0.10541371
   0.50000000  0.50000000  0.10541371
   0.24993278  0.25008140  0.15720190
   0.24998340  0.74992395  0.15718941
   0.75006722  0.25008140  0.15720190
   0.75001660  0.74992395  0.15718941
   0.00000000  0.00011568  0.20857173
   0.00000000  0.49991196  0.20863722
   0.50000000 -0.00000572  0.20880552
   0.50000000  0.50000054  0.20868899
   0.25006302  0.25024515  0.25948149
   0.24986025  0.74974621  0.25952379
   0.74993698  0.25024515  0.25948149
   0.75013975  0.74974621  0.25952379
   0.00000000  0.00032204  0.31411309
   0.00000000  0.49965760  0.31355053
   0.50000000 -0.00006747  0.31428353
   0.50000000  0.49997447  0.31429145
   0.25077793  0.24903750  0.36161905
   0.25098570  0.75076261  0.36163352
   0.74922207  0.24903750  0.36161905
   0.74901430  0.75076261  0.36163352
   1.00000000  0.49906977  0.42699913
   1.00000000  0.60417582  0.44990684
Direct configuration=     5
   0.00000000  0.00000000  0.00000000
   0.00000000  0.50000000  0.00000000
   0.50000000  0.00000000  0.00000000
   0.50000000  0.50000000  0.00000000
   0.25000000  0.25000000  0.05351109
   0.25000000  0.75000000  0.05351109
   0.75000000  0.25000000  0.05351109
   0.75000000  0.75000000  0.05351109
   0.00000000  0.00000000  0.10541371
   0.00000000  0.50000000  0.10541371
   0.50000000  0.00000000  0.10541371
   0.50000000  0.50000000  0.10541371
   0.24984916  0.25018597  0.15726941
   0.24996390  0.74982795  0.15724158
   0.75015084  0.25018597  0.15726941
   0.75003610  0.74982795  0.15724158
   0.00000000  0.00026390  0.20845732
   0.00000000  0.49980066  0.20860053
   0.50000000 -0.00001446  0.20899107
   0.50000000  0.50000394  0.20872567
   0.25015011  0.25055130  0.25947920
   0.24968521  0.74942961  0.25957529
   0.74984989  0.25055130  0.25947920
   0.75031479  0.74942961  0.25957529
   0.00000000  0.00072762  0.31405418
   0.00000000  0.49922735  0.31278397
   0.50000000 -0.00015158  0.31444139
   0.50000000  0.49993814  0.31446097
   0.25175783  0.24783225  0.36137090
   0.25222208  0.75170929  0.36140621
   0.74824217  0.24783225  0.36137090
   0.74777792  0.75170929  0.36140621
   1.00000000  0.50003008  0.42756143
   1.00000000  0.60383317  0.45072099
Direct configuration=     6
   0.00000000  0.00000000  0.00000000
   0.00000000  0.50000000  0.00000000
   0.50000000  0.00000000  0.00000000
   0.50000000  0.50000000  0.00000000
   0.25000000  0.25000000  0.05351109
   0.25000000  0.75000000  0.05351109
   0.75000000  0.25000000  0.05351109
   0.75000000  0.75000000  0.05351109
   0.00000000  0.00000000  0.10541371
   0.00000000  0.50000000  0.10541371
   0.50000000  0.00000000  0.10541371
   0.50000000  0.50000000  0.10541371
   0.24996984  0.25010466  0.15725195
   0.25005840  0.74990108  0.15724697
   0.75003016  0.25010466  0.15725195
   0.74994160  0.74990108  0.15724697
   0.00000000  0.00022036  0.20844555
   0.00000000  0.49985117  0.20842682
   0.50000000 -0.00010038  0.20901781
   0.50000000  0.50007198  0.20874131
   0.25032545  0.25039323  0.25940030
   0.24972873  0.74956263  0.25949859
   0.74967455  0.25039323  0.25940030
   0.75027127  0.74956263  0.25949859
   0.00000000  0.00054215  0.31403953
   0.00000000  0.49928136  0.31268869
   0.50000000 -0.00018110  0.31432605
   0.50000000  0.49984087  0.31443976
   0.25178490  0.24794558  0.36130109
   0.25221626  0.75142167  0.36134880
   0.74821510  0.24794558  0.36130109
   0.74778374  0.75142167  0.36134880
   1.00000000  0.50231890  0.42835416
   1.00000000  0.60229994  0.45122324
Direct configuration=     7
   0.00000000  0.00000000  0.00000000
   0.00000000  0.50000000  0.00000000
   0.50000000  0.00000000  0.00000000
   0.50000000  0.50000000  0.00000000
   0.25000000  0.25000000  0.05351109
   0.25000000  0.75000000  0.05351109
   0.75000000  0.25000000  0.05351109
   0.75000000  0.75000000  0.05351109
   0.00000000  0.00000000  0.10541371
   0.00000000  0.50000000  0.10541371
   0.50000000  0.00000000  0.10541371
   0.50000000  0.50000000  0.10541371
   0.24995329  0.25011581  0.15725434
   0.25004544  0.74989105  0.15724623
   0.75004671  0.25011581  0.15725434
   0.74995456  0.74989105  0.15724623
   0.00000000  0.00022633  0.20844717
   0.00000000  0.49984425  0.20845064
   0.50000000 -0.00008860  0.20901414
   0.50000000  0.50006265  0.20873916
   0.25030141  0.25041490  0.25941112
   0.24972277  0.74954440  0.25950911
   0.74969859  0.25041490  0.25941112
   0.75027723  0.74954440  0.25950911
   0.00000000  0.00056758  0.31404154
   0.00000000  0.49927396  0.31270175
   0.50000000 -0.00017705  0.31434186
   0.50000000  0.49985421  0.31444266
   0.25178119  0.24793004  0.36131066
   0.25221705  0.75146110  0.36135667
   0.74821881  0.24793004  0.36131066
   0.74778294  0.75146110  0.36135667
   1.00000000  0.50200508  0.42824546
   1.00000000  0.60251016  0.45115437
Direct configuration=     8
   0.00000000  0.00000000  0.00000000
   0.00000000  0.50000000  0.00000000
   0.50000000  0.00000000  0.00000000
   0.50000000  0.50000000  0.00000000
   0.25000000  0.25000000  0.05351109
   0.25000000  0.75000000  0.05351109
   0.75000000  0.25000000  0.05351109
   0.75000000  0.75000000  0.05351109
   0.00000000  0.00000000  0.10541371
   0.00000000  0.50000000  0.10541371
   0.50000000  0.00000000  0.10541371
   0.50000000  0.50000000  0.10541371
   0.25004690  0.25005468  0.15723674
   0.25011565  0.74995139  0.15724443
   0.74995310  0.25005468  0.15723674
   0.74988435  0.74995139  0.15724443
   0.00000000  0.00019740  0.20845045
   0.00000000  0.49987858  0.20834273
   0.50000000 -0.00014567  0.20901614
   0.50000000  0.50011177  0.20874979
   0.25039923  0.25029857  0.25935888
   0.24975773  0.74964812  0.25945573
   0.74960077  0.25029857  0.25935888
   0.75024227  0.74964812  0.25945573
   0.00000000  0.00041688  0.31403514
   0.00000000  0.49933806  0.31269697
   0.50000000 -0.00020008  0.31425288
   0.50000000  0.49979514  0.31441512
   0.25172162  0.24809296  0.36127824
   0.25212259  0.75119487  0.36133039
   0.74827838  0.24809296  0.36127824
   0.74787741  0.75119487  0.36133039
   1.00000000  0.50251175  0.42852337
   1.00000000  0.60242690  0.45165259
Direct configuration=     9
   0.00000000  0.00000000  0.00000000
   0.00000000  0.50000000  0.00000000
   0.50000000  0.00000000  0.00000000
   0.50000000  0.50000000  0.00000000
   0.25000000  0.25000000  0.05351109
   0.25000000  0.75000000  0.05351109
   0.75000000  0.25000000  0.05351109
   0.75000000  0.75000000  0.05351109
   0.00000000  0.00000000  0.10541371
   0.00000000  0.50000000  0.10541371
   0.50000000  0.00000000  0.10541371
   0.50000000  0.50000000  0.10541371
   0.25032773  0.24987128  0.15718394
   0.25032630  0.75013239  0.15723904
   0.74967227  0.24987128  0.15718394
   0.74967370  0.75013239  0.15723904
   0.00000000  0.00011062  0.20846029
   0.00000000  0.49998159  0.20801900
   0.50000000 -0.00031686  0.20902212
   0.50000000  0.50025912  0.20878168
   0.25069271  0.24994959  0.25920217
   0.24986261  0.74995928  0.25929558
   0.74930729  0.24994959  0.25920217
   0.75013739  0.74995928  0.25929558
   0.00000000 -0.00003521  0.31401593
   0.00000000  0.49953038  0.31268260
   0.50000000 -0.00026915  0.31398593
   0.50000000  0.49961794  0.31433247
   0.25154290  0.24858171  0.36118100
   0.25183921  0.75039618  0.36125154
   0.74845710  0.24858171  0.36118100
   0.74816079  0.75039618  0.36125154
   1.00000000  0.50403176  0.42935708
   1.00000000  0.60217714  0.45314723
Direct configuration=    10
   0.00000000  0.00000000  0.00000000
   0.00000000  0.50000000  0.00000000
   0.50000000  0.00000000  0.00000000
   0.50000000  0.50000000  0.00000000
   0.25000000  0.25000000  0.05351109
   0.25000000  0.75000000  0.05351109
   0.75000000  0.25000000  0.05351109
   0.75000000  0.75000000  0.05351109
   0.00000000  0.00000000  0.10541371
   0.00000000  0.50000000  0.10541371
   0.50000000  0.00000000  0.10541371
   0.50000000  0.50000000  0.10541371
   0.25088938  0.24950449  0.15707835
   0.25074758  0.75049440  0.15722826
   0.74911062  0.24950449  0.15707835
   0.74925242  0.75049440  0.15722826
   0.00000000 -0.00006294  0.20847997
   0.00000000  0.50018761  0.20737153
   0.50000000 -0.00065924  0.20903408
   0.50000000  0.50055384  0.20884545
   0.25127966  0.24925163  0.25888875
   0.25007236  0.75058161  0.25897527
   0.74872034  0.24925163  0.25888875
   0.74992764  0.75058161  0.25897527
   0.00000000 -0.00093939  0.31397751
   0.00000000  0.49991502  0.31265388
   0.50000000 -0.00040730  0.31345203
   0.50000000  0.49926353  0.31416718
   0.25118548  0.24955922  0.36098653
   0.25127244  0.74879881  0.36109385
   0.74881452  0.24955922  0.36098653
   0.74872756  0.74879881  0.36109385
   1.00000000  0.50707179  0.43102450
   1.00000000  0.60167761  0.45613651
Direct configuration=    11
   0.00000000  0.00000000  0.00000000
   0.00000000  0.50000000  0.00000000
   0.50000000  0.00000000  0.00000000
   0.50000000  0.50000000  0.00000000
   0.25000000  0.25000000  0.05351109
   0.25000000  0.75000000  0.05351109
   0.75000000  0.25000000  0.05351109
   0.75000000  0.75000000  0.05351109
   0.00000000  0.00000000  0.10541371
   0.00000000  0.50000000  0.10541371
   0.50000000  0.00000000  0.10541371
   0.50000000  0.50000000  0.10541371
   0.25096205  0.24947021  0.15705101
   0.25080166  0.75052764  0.15720445
   0.74903795  0.24947021  0.15705101
   0.74919834  0.75052764  0.15720445
   0.00000000 -0.00004379  0.20847416
   0.00000000  0.50016882  0.20731559
   0.50000000 -0.00068665  0.20899545
   0.50000000  0.50057122  0.20883497
   0.25126991  0.24922249  0.25884564
   0.25005427  0.75058778  0.25893719
   0.74873009  0.24922249  0.25884564
   0.74994573  0.75058778  0.25893719
   0.00000000 -0.00102001  0.31396031
   0.00000000  0.49990101  0.31263435
   0.50000000 -0.00046894  0.31338818
   0.50000000  0.49923113  0.31412768
   0.25109981  0.24965375  0.36094647
   0.25117944  0.74858795  0.36106040
   0.74890019  0.24965375  0.36094647
   0.74882056  0.74858795  0.36106040
   1.00000000  0.50804707  0.43145067
   1.00000000  0.60121410  0.45667052
Direct configuration=    12
   0.00000000  0.00000000  0.00000000
   0.00000000  0.50000000  0.00000000
   0.50000000  0.00000000  0.00000000
   0.50000000  0.50000000  0.00000000
   0.25000000  0.25000000  0.05351109
   0.25000000  0.75000000  0.05351109
   0.75000000  0.25000000  0.05351109
   0.75000000  0.75000000  0.05351109
   0.00000000  0.00000000  0.10541371
   0.00000000  0.50000000  0.10541371
   0.50000000  0.00000000  0.10541371
   0.50000000  0.50000000  0.10541371
   0.25118005  0.24936737  0.15696898
   0.25096391  0.75062737  0.15713304
   0.74881995  0.24936737  0.15696898
   0.74903609  0.75062737  0.15713304
   0.00000000  0.00001366  0.20845674
   0.00000000  0.50011244  0.20714774
   0.50000000 -0.00076890  0.20887955
   0.50000000  0.50062336  0.20880353
   0.25124067  0.24913507  0.25871631
   0.25000001  0.75060627  0.25882294
   0.74875933  0.24913507  0.25871631
   0.74999999  0.75060627  0.25882294
   0.00000000 -0.00126188  0.31390869
   0.00000000  0.49985899  0.31257575
   0.50000000 -0.00065387  0.31319663
   0.50000000  0.49913392  0.31400917
   0.25084280  0.24993735  0.36082630
   0.25090043  0.74795538  0.36096005
   0.74915720  0.24993735  0.36082630
   0.74909956  0.74795538  0.36096005
   1.00000000  0.51097291  0.43272919
   1.00000000  0.59982359  0.45827257
Direct configuration=    13
   0.00000000  0.00000000  0.00000000
   0.00000000  0.50000000  0.00000000
   0.50000000  0.00000000  0.00000000
   0.50000000  0.50000000  0.00000000
   0.25000000  0.25000000  0.05351109
   0.25000000  0.75000000  0.05351109
   0.75000000  0.25000000  0.05351109
   0.75000000  0.75000000  0.05351109
   0.00000000  0.00000000  0.10541371
   0.00000000  0.50000000  0.10541371
   0.50000000  0.00000000  0.10541371
   0.50000000  0.50000000  0.10541371
   0.25161604  0.24916169  0.15680493
   0.25128840  0.75082682  0.15699020
   0.74838396  0.24916169  0.15680493
   0.74871160  0.75082682  0.15699020
   0.00000000  0.00012855  0.20842190
   0.00000000  0.49999970  0.20681206
   0.50000000 -0.00093338  0.20864774
   0.50000000  0.50072764  0.20874065
   0.25118220  0.24896023  0.25845764
   0.24989148  0.75064326  0.25859443
   0.74881780  0.24896023  0.25845764
   0.75010852  0.75064326  0.25859443
   0.00000000 -0.00174560  0.31380546
   0.00000000  0.49977495  0.31245856
   0.50000000 -0.00102372  0.31281352
   0.50000000  0.49893949  0.31377215
   0.25032880  0.25050454  0.36058596
   0.25034243  0.74669023  0.36075935
   0.74967120  0.25050454  0.36058596
   0.74965757  0.74669023  0.36075935
   1.00000000  0.51682460  0.43528622
   1.00000000  0.59704255  0.46147666
Direct configuration=    14
   0.00000000  0.00000000  0.00000000
   0.00000000  0.50000000  0.00000000
   0.50000000  0.00000000  0.00000000
   0.50000000  0.50000000  0.00000000
   0.25000000  0.25000000  0.05351109
   0.25000000  0.75000000  0.05351109
   0.75000000  0.25000000  0.05351109
   0.75000000  0.75000000  0.05351109
   0.00000000  0.00000000  0.10541371
   0.00000000  0.50000000  0.10541371
   0.50000000  0.00000000  0.10541371
   0.50000000  0.50000000  0.10541371
   0.25163425  0.24920312  0.15674050
   0.25128427  0.75078395  0.15690623
   0.74836575  0.24920312  0.15674050
   0.74871573  0.75078395  0.15690623
   0.00000000  0.00023003  0.20837232
   0.00000000  0.49987897  0.20684854
   0.50000000 -0.00089871  0.20850967
   0.50000000  0.50066871  0.20866953
   0.25093359  0.24909746  0.25841217
   0.24974531  0.75043043  0.25856467
   0.74906641  0.24909746  0.25841217
   0.75025469  0.75043043  0.25856467
   0.00000000 -0.00171678  0.31374335
   0.00000000  0.49954822  0.31237801
   0.50000000 -0.00119664  0.31278355
   0.50000000  0.49891175  0.31367678
   0.25016538  0.25038412  0.36049466
   0.25023314  0.74657447  0.36068009
   0.74983462  0.25038412  0.36049466
   0.74976686  0.74657447  0.36068009
   1.00000000  0.51858243  0.43608953
   1.00000000  0.59644133  0.46290766
Direct configuration=    15
   0.00000000  0.00000000  0.00000000
   0.00000000  0.50000000  0.00000000
   0.50000000  0.00000000  0.00000000
   0.50000000  0.50000000  0.00000000
   0.25000000  0.25000000  0.05351109
   0.25000000  0.75000000  0.05351109
   0.75000000  0.25000000  0.05351109
   0.75000000  0.75000000  0.05351109
   0.00000000  0.00000000  0.10541371
   0.00000000  0.50000000  0.10541371
   0.50000000  0.00000000  0.10541371
   0.50000000  0.50000000  0.10541371
   0.25168888  0.24932742  0.15654719
   0.25127188  0.75065535  0.15665433
   0.74831112  0.24932742  0.15654719
   0.74872812  0.75065535  0.15665433
   0.00000000  0.00053447  0.20822357
   0.00000000  0.49951676  0.20695800
   0.50000000 -0.00079469  0.20809546
   0.50000000  0.50049193  0.20845617
   0.25018775  0.24950917  0.25827578
   0.24930680  0.74979192  0.25847539
   0.74981225  0.24950917  0.25827578
   0.75069320  0.74979192  0.25847539
   0.00000000 -0.00163032  0.31355701
   0.00000000  0.49886804  0.31213636
   0.50000000 -0.00171540  0.31269363
   0.50000000  0.49882851  0.31339067
   0.24967513  0.25002286  0.36022074
   0.24990526  0.74622717  0.36044233
   0.75032487  0.25002286  0.36022074
   0.75009474  0.74622717  0.36044233
   1.00000000  0.52385592  0.43849949
   1.00000000  0.59463768  0.46720066
Direct configuration=    16
   0.00000000  0.00000000  0.00000000
   0.00000000  0.50000000  0.00000000
   0.50000000  0.00000000  0.00000000
   0.50000000  0.50000000  0.00000000
   0.25000000  0.25000000  0.05351109
   0.25000000  0.75000000  0.05351109
   0.75000000  0.25000000  0.05351109
   0.75000000  0.75000000  0.05351109
   0.00000000  0.00000000  0.10541371
   0.00000000  0.50000000  0.10541371
   0.50000000  0.00000000  0.10541371
   0.50000000  0.50000000  0.10541371
   0.25167844  0.24930366  0.15658415
   0.25127425  0.75067994  0.15670249
   0.74832156  0.24930366  0.15658415
   0.74872575  0.75067994  0.15670249
   0.00000000  0.00047626  0.20825201
   0.00000000  0.49958601  0.20693707
   0.50000000 -0.00081458  0.20817466
   0.50000000  0.50052573  0.20849696
   0.25033035  0.24943046  0.25830186
   0.24939064  0.74991400  0.25849246
   0.74966965  0.24943046  0.25830186
   0.75060936  0.74991400  0.25849246
   0.00000000 -0.00164685  0.31359263
   0.00000000  0.49899809  0.31218256
   0.50000000 -0.00161621  0.31271082
   0.50000000  0.49884442  0.31344537
   0.24976886  0.25009193  0.36027311
   0.24996795  0.74629357  0.36048779
   0.75023114  0.25009193  0.36027311
   0.75003205  0.74629357  0.36048779
   1.00000000  0.52284767  0.43803872
   1.00000000  0.59498252  0.46637987
Direct configuration=    17
   0.00000000  0.00000000  0.00000000
   0.00000000  0.50000000  0.00000000
   0.50000000  0.00000000  0.00000000
   0.50000000  0.50000000  0.00000000
   0.25000000  0.25000000  0.05351109
   0.25000000  0.75000000  0.05351109
   0.75000000  0.25000000  0.05351109
   0.75000000  0.75000000  0.05351109
   0.00000000  0.00000000  0.10541371
   0.00000000  0.50000000  0.10541371
   0.50000000  0.00000000  0.10541371
   0.50000000  0.50000000  0.10541371
   0.25151110  0.24948480  0.15651490
   0.25109799  0.75050144  0.15659461
   0.74848890  0.24948480  0.15651490
   0.74890201  0.75050144  0.15659461
   0.00000000  0.00057654  0.20814622
   0.00000000  0.49943623  0.20711415
   0.50000000 -0.00068731  0.20800783
   0.50000000  0.50036732  0.20837266
   0.24990905  0.24968820  0.25828600
   0.24917235  0.74952901  0.25848728
   0.75009095  0.24968820  0.25828600
   0.75082765  0.74952901  0.25848728
   0.00000000 -0.00148301  0.31348387
   0.00000000  0.49858651  0.31208148
   0.50000000 -0.00182159  0.31276978
   0.50000000  0.49879703  0.31331853
   0.24961939  0.24959927  0.36017123
   0.24991495  0.74651459  0.36039499
   0.75038061  0.24959927  0.36017123
   0.75008505  0.74651459  0.36039499
   1.00000000  0.52590622  0.43934788
   1.00000000  0.59338326  0.46798546
Direct configuration=    18
   0.00000000  0.00000000  0.00000000
   0.00000000  0.50000000  0.00000000
   0.50000000  0.00000000  0.00000000
   0.50000000  0.50000000  0.00000000
   0.25000000  0.25000000  0.05351109
   0.25000000  0.75000000  0.05351109
   0.75000000  0.25000000  0.05351109
   0.75000000  0.75000000  0.05351109
   0.00000000  0.00000000  0.10541371
   0.00000000  0.50000000  0.10541371
   0.50000000  0.00000000  0.10541371
   0.50000000  0.50000000  0.10541371
   0.25129252  0.24972143  0.15642444
   0.25086774  0.75026827  0.15645369
   0.74870748  0.24972143  0.15642444
   0.74913226  0.75026827  0.15645369
   0.00000000  0.00070752  0.20800802
   0.00000000  0.49924057  0.20734547
   0.50000000 -0.00052108  0.20778990
   0.50000000  0.50016039  0.20821029
   0.24935872  0.25002487  0.25826529
   0.24888721  0.74902612  0.25848052
   0.75064128  0.25002487  0.25826529
   0.75111279  0.74902612  0.25848052
   0.00000000 -0.00126900  0.31334178
   0.00000000  0.49804889  0.31194944
   0.50000000 -0.00208987  0.31284679
   0.50000000  0.49873512  0.31315285
   0.24942413  0.24895574  0.36003814
   0.24984571  0.74680330  0.36027378
   0.75057587  0.24895574  0.36003814
   0.75015429  0.74680330  0.36027378
   1.00000000  0.52990147  0.44105798
   1.00000000  0.59129420  0.47008278
Direct configuration=    19
   0.00000000  0.00000000  0.00000000
   0.00000000  0.50000000  0.00000000
   0.50000000  0.00000000  0.00000000
   0.50000000  0.50000000  0.00000000
   0.25000000  0.25000000  0.05351109
   0.25000000  0.75000000  0.05351109
   0.75000000  0.25000000  0.05351109
   0.75000000  0.75000000  0.05351109
   0.00000000  0.00000000  0.10541371
   0.00000000  0.50000000  0.10541371
   0.50000000  0.00000000  0.10541371
   0.50000000  0.50000000  0.10541371
   0.25124667  0.24977106  0.15640546
   0.25081945  0.75021936  0.15642413
   0.74875333  0.24977106  0.15640546
   0.74918055  0.75021936  0.15642413
   0.00000000  0.00073500  0.20797904
   0.00000000  0.49919953  0.20739399
   0.50000000 -0.00048621  0.20774419
   0.50000000  0.50011699  0.20817624
   0.24924328  0.25009549  0.25826095
   0.24882740  0.74892063  0.25847911
   0.75075672  0.25009549  0.25826095
   0.75117260  0.74892063  0.25847911
   0.00000000 -0.00122411  0.31331198
   0.00000000  0.49793612  0.31192174
   0.50000000 -0.00214614  0.31286295
   0.50000000  0.49872213  0.31311809
   0.24938317  0.24882075  0.36001023
   0.24983119  0.74686386  0.36024836
   0.75061683  0.24882075  0.36001023
   0.75016881  0.74686386  0.36024836
   1.00000000  0.53073950  0.44141668
   1.00000000  0.59085600  0.47052271
Direct configuration=    20
   0.00000000  0.00000000  0.00000000
   0.00000000  0.50000000  0.00000000
   0.50000000  0.00000000  0.00000000
   0.50000000  0.50000000  0.00000000
   0.25000000  0.25000000  0.05351109
   0.25000000  0.75000000  0.05351109
   0.75000000  0.25000000  0.05351109
   0.75000000  0.75000000  0.05351109
   0.00000000  0.00000000  0.10541371
   0.00000000  0.50000000  0.10541371
   0.50000000  0.00000000  0.10541371
   0.50000000  0.50000000  0.10541371
   0.25115498  0.24987033  0.15636751
   0.25072286  0.75012154  0.15636502
   0.74884502  0.24987033  0.15636751
   0.74927714  0.75012154  0.15636502
   0.00000000  0.00078995  0.20792106
   0.00000000  0.49911745  0.20749103
   0.50000000 -0.00041647  0.20765277
   0.50000000  0.50003018  0.20810812
   0.24901241  0.25023673  0.25825226
   0.24870778  0.74870966  0.25847627
   0.75098759  0.25023673  0.25825226
   0.75129222  0.74870966  0.25847627
   0.00000000 -0.00113433  0.31325238
   0.00000000  0.49771058  0.31186635
   0.50000000 -0.00225868  0.31289525
   0.50000000  0.49869616  0.31304859
   0.24930126  0.24855078  0.35995440
   0.24980214  0.74698497  0.36019751
   0.75069874  0.24855078  0.35995440
   0.75019786  0.74698497  0.36019751
   1.00000000  0.53241556  0.44213409
   1.00000000  0.58997962  0.47140256
Direct configuration=    21
   0.00000000  0.00000000  0.00000000
   0.00000000  0.50000000  0.00000000
   0.50000000  0.00000000  0.00000000
   0.50000000  0.50000000  0.00000000
   0.25000000  0.25000000  0.05351109
   0.25000000  0.75000000  0.05351109
   0.75000000  0.25000000  0.05351109
   0.75000000  0.75000000  0.05351109
   0.00000000  0.00000000  0.10541371
   0.00000000  0.50000000  0.10541371
   0.50000000  0.00000000  0.10541371
   0.50000000  0.50000000  0.10541371
   0.25097158  0.25006886  0.15629161
   0.25052968  0.74992591  0.15624678
   0.74902842  0.25006886  0.15629161
   0.74947032  0.74992591  0.15624678
   0.00000000  0.00089985  0.20780512
   0.00000000  0.49895328  0.20768511
   0.50000000 -0.00027699  0.20746992
   0.50000000  0.49985657  0.20797189
   0.24855067  0.25051921  0.25823488
   0.24846853  0.74828772  0.25847060
   0.75144933  0.25051921  0.25823488
   0.75153147  0.74828772  0.25847060
   0.00000000 -0.00095477  0.31313317
   0.00000000  0.49725951  0.31175556
   0.50000000 -0.00248377  0.31295987
   0.50000000  0.49864421  0.31290957
   0.24913743  0.24801084  0.35984274
   0.24974405  0.74722720  0.36009581
   0.75086257  0.24801084  0.35984274
   0.75025595  0.74722720  0.36009581
   1.00000000  0.53576768  0.44356890
   1.00000000  0.58822685  0.47316226
Direct configuration=    22
   0.00000000  0.00000000  0.00000000
   0.00000000  0.50000000  0.00000000
   0.50000000  0.00000000  0.00000000
   0.50000000  0.50000000  0.00000000
   0.25000000  0.25000000  0.05351109
   0.25000000  0.75000000  0.05351109
   0.75000000  0.25000000  0.05351109
   0.75000000  0.75000000  0.05351109
   0.00000000  0.00000000  0.10541371
   0.00000000  0.50000000  0.10541371
   0.50000000  0.00000000  0.10541371
   0.50000000  0.50000000  0.10541371
   0.25112304  0.24990490  0.15635429
   0.25068921  0.75008747  0.15634442
   0.74887696  0.24990490  0.15635429
   0.74931079  0.75008747  0.15634442
   0.00000000  0.00080909  0.20790087
   0.00000000  0.49908886  0.20752483
   0.50000000 -0.00039217  0.20762092
   0.50000000  0.49999994  0.20808439
   0.24893199  0.25028593  0.25824923
   0.24866611  0.74863617  0.25847528
   0.75106801  0.25028593  0.25824923
   0.75133389  0.74863617  0.25847528
   0.00000000 -0.00110306  0.31323162
   0.00000000  0.49763202  0.31184705
   0.50000000 -0.00229789  0.31290651
   0.50000000  0.49868711  0.31302437
   0.24927273  0.24845674  0.35993495
   0.24979203  0.74702716  0.36017979
   0.75072727  0.24845674  0.35993495
   0.75020797  0.74702716  0.36017979
   1.00000000  0.53299938  0.44238398
   1.00000000  0.58967435  0.47170904
Direct configuration=    23
   0.00000000  0.00000000  0.00000000
   0.00000000  0.50000000  0.00000000
   0.50000000  0.00000000  0.00000000
   0.50000000  0.50000000  0.00000000
   0.25000000  0.25000000  0.05351109
   0.25000000  0.75000000  0.05351109
   0.75000000  0.25000000  0.05351109
   0.75000000  0.75000000  0.05351109
   0.00000000  0.00000000  0.10541371
   0.00000000  0.50000000  0.10541371
   0.50000000  0.00000000  0.10541371
   0.50000000  0.50000000  0.10541371
   0.25104731  0.24998688  0.15632295
   0.25060944  0.75000669  0.15629560
   0.74895269  0.24998688  0.15632295
   0.74939055  0.75000669  0.15629560
   0.00000000  0.00085447  0.20785299
   0.00000000  0.49902107  0.20760497
   0.50000000 -0.00033458  0.20754542