  34  34   0   0
  0.2629040E+02  0.7260000E-09  0.5133596E-09  0.2398379E-08  0.5000000E-15
  1.000000000000000E-004
  CAR 
 unknown system                          
     11.86974825    -10.21680176  301      0.85710263      1.00000000
    -10.217  0.0000E+00  0.0000E+00  0.0000E+00  0.0000E+00
    -10.143  0.0000E+00  0.0000E+00  0.0000E+00  0.0000E+00
    -10.070  0.0000E+00  0.0000E+00  0.0000E+00  0.0000E+00
     -9.996  0.0000E+00  0.0000E+00  0.0000E+00  0.0000E+00
     -9.922  0.0000E+00  0.0000E+00  0.0000E+00  0.0000E+00
     -9.849 -0.5295E-31 -0.5295E-31 -0.3898E-32 -0.3898E-32
     -9.775 -0.1789E-28 -0.1789E-28 -0.1321E-29 -0.1321E-29
     -9.701 -0.4607E-26 -0.4607E-26 -0.3405E-27 -0.3405E-27
     -9.628 -0.9024E-24 -0.9024E-24 -0.6678E-25 -0.6678E-25
     -9.554 -0.1344E-21 -0.1344E-21 -0.9961E-23 -0.9961E-23
     -9.481 -0.1521E-19 -0.1521E-19 -0.1130E-20 -0.1130E-20
     -9.407 -0.1307E-17 -0.1307E-17 -0.9736E-19 -0.9736E-19
     -9.333 -0.8255E-16 -0.8255E-16 -0.6175E-17 -0.6175E-17
     -9.260 -0.4066E-14 -0.4066E-14 -0.3055E-15 -0.3055E-15
     -9.186 -0.1515E-12 -0.1515E-12 -0.1146E-13 -0.1146E-13
     -9.112 -0.4264E-11 -0.4264E-11 -0.3254E-12 -0.3254E-12
     -9.039 -0.9045E-10 -0.9045E-10 -0.6985E-11 -0.6985E-11
     -8.965 -0.1441E-08 -0.1441E-08 -0.1131E-09 -0.1131E-09
     -8.892 -0.1717E-07 -0.1717E-07 -0.1377E-08 -0.1377E-08
     -8.818 -0.1518E-06 -0.1518E-06 -0.1256E-07 -0.1256E-07
     -8.744 -0.9858E-06 -0.9858E-06 -0.8513E-07 -0.8513E-07
     -8.671 -0.4608E-05 -0.4608E-05 -0.4244E-06 -0.4244E-06
     -8.597 -0.1492E-04 -0.1492E-04 -0.1523E-05 -0.1523E-05
     -8.523 -0.3030E-04 -0.3030E-04 -0.3753E-05 -0.3753E-05
     -8.450 -0.2413E-04 -0.2413E-04 -0.5529E-05 -0.5529E-05
     -8.376  0.5635E-04  0.5635E-04 -0.1381E-05 -0.1381E-05
     -8.303  0.2220E-03  0.2220E-03  0.1496E-04  0.1496E-04
     -8.229  0.3779E-03  0.3779E-03  0.4278E-04  0.4278E-04
     -8.155  0.4597E-03  0.4597E-03  0.7663E-04  0.7663E-04
     -8.082  0.6924E-03  0.6924E-03  0.1276E-03  0.1276E-03
     -8.008  0.1528E-02  0.1528E-02  0.2401E-03  0.2401E-03
     -7.935  0.3099E-02  0.3099E-02  0.4683E-03  0.4683E-03
     -7.861  0.4708E-02  0.4708E-02  0.8149E-03  0.8149E-03
     -7.787  0.5176E-02  0.5176E-02  0.1196E-02  0.1196E-02
     -7.714  0.4063E-02  0.4063E-02  0.1495E-02  0.1495E-02
     -7.640  0.2292E-02  0.2292E-02  0.1664E-02  0.1664E-02
     -7.566  0.1116E-02  0.1116E-02  0.1746E-02  0.1746E-02
     -7.493  0.8023E-03  0.8023E-03  0.1805E-02  0.1805E-02
     -7.419  0.8198E-03  0.8198E-03  0.1865E-02  0.1865E-02
     -7.346  0.9503E-03  0.9503E-03  0.1935E-02  0.1935E-02
     -7.272  0.1465E-02  0.1465E-02  0.2043E-02  0.2043E-02
     -7.198  0.2241E-02  0.2241E-02  0.2208E-02  0.2208E-02
     -7.125  0.2576E-02  0.2576E-02  0.2398E-02  0.2398E-02
     -7.051  0.2190E-02  0.2190E-02  0.2559E-02  0.2559E-02
     -6.977  0.1714E-02  0.1714E-02  0.2685E-02  0.2685E-02
     -6.904  0.1734E-02  0.1734E-02  0.2813E-02  0.2813E-02
     -6.830  0.1959E-02  0.1959E-02  0.2957E-02  0.2957E-02
     -6.757  0.1769E-02  0.1769E-02  0.3087E-02  0.3087E-02
     -6.683  0.1179E-02  0.1179E-02  0.3174E-02  0.3174E-02
     -6.609  0.7441E-03  0.7441E-03  0.3229E-02  0.3229E-02
     -6.536  0.7795E-03  0.7795E-03  0.3286E-02  0.3286E-02
     -6.462  0.1239E-02  0.1239E-02  0.3378E-02  0.3378E-02
     -6.388  0.2160E-02  0.2160E-02  0.3537E-02  0.3537E-02
     -6.315  0.3436E-02  0.3436E-02  0.3790E-02  0.3790E-02
     -6.241  0.4274E-02  0.4274E-02  0.4104E-02  0.4104E-02
     -6.168  0.3859E-02  0.3859E-02  0.4388E-02  0.4388E-02
     -6.094  0.2538E-02  0.2538E-02  0.4575E-02  0.4575E-02
     -6.020  0.1418E-02  0.1418E-02  0.4680E-02  0.4680E-02
     -5.947  0.1001E-02  0.1001E-02  0.4753E-02  0.4753E-02
     -5.873  0.1006E-02  0.1006E-02  0.4827E-02  0.4827E-02
     -5.799  0.1143E-02  0.1143E-02  0.4911E-02  0.4911E-02
     -5.726  0.1409E-02  0.1409E-02  0.5015E-02  0.5015E-02
     -5.652  0.2026E-02  0.2026E-02  0.5164E-02  0.5164E-02
     -5.579  0.3364E-02  0.3364E-02  0.5412E-02  0.5412E-02
     -5.505  0.5225E-02  0.5225E-02  0.5797E-02  0.5797E-02
     -5.431  0.6307E-02  0.6307E-02  0.6261E-02  0.6261E-02
     -5.358  0.5451E-02  0.5451E-02  0.6662E-02  0.6662E-02
     -5.284  0.3242E-02  0.3242E-02  0.6901E-02  0.6901E-02
     -5.211  0.1455E-02  0.1455E-02  0.7008E-02  0.7008E-02
     -5.137  0.1348E-02  0.1348E-02  0.7107E-02  0.7107E-02
     -5.063  0.3107E-02  0.3107E-02  0.7336E-02  0.7336E-02
     -4.990  0.6007E-02  0.6007E-02  0.7778E-02  0.7778E-02
     -4.916  0.8497E-02  0.8497E-02  0.8404E-02  0.8404E-02
     -4.842  0.9115E-02  0.9115E-02  0.9075E-02  0.9075E-02
     -4.769  0.7708E-02  0.7708E-02  0.9642E-02  0.9642E-02
     -4.695  0.5184E-02  0.5184E-02  0.1002E-01  0.1002E-01
     -4.622  0.2518E-02  0.2518E-02  0.1021E-01  0.1021E-01
     -4.548  0.5874E-03  0.5874E-03  0.1025E-01  0.1025E-01
     -4.474  0.2834E-03  0.2834E-03  0.1027E-01  0.1027E-01
     -4.401  0.2108E-02  0.2108E-02  0.1043E-01  0.1043E-01
     -4.327  0.5641E-02  0.5641E-02  0.1084E-01  0.1084E-01
     -4.253  0.9440E-02  0.9440E-02  0.1154E-01  0.1154E-01
     -4.180  0.1178E-01  0.1178E-01  0.1241E-01  0.1241E-01
     -4.106  0.1212E-01  0.1212E-01  0.1330E-01  0.1330E-01
     -4.033  0.1181E-01  0.1181E-01  0.1417E-01  0.1417E-01
     -3.959  0.1292E-01  0.1292E-01  0.1512E-01  0.1512E-01
     -3.885  0.1594E-01  0.1594E-01  0.1629E-01  0.1629E-01
     -3.812  0.1918E-01  0.1918E-01  0.1770E-01  0.1770E-01
     -3.738  0.2105E-01  0.2105E-01  0.1925E-01  0.1925E-01
     -3.664  0.2211E-01  0.2211E-01  0.2088E-01  0.2088E-01
     -3.591  0.2366E-01  0.2366E-01  0.2262E-01  0.2262E-01
     -3.517  0.2532E-01  0.2532E-01  0.2449E-01  0.2449E-01
     -3.444  0.2635E-01  0.2635E-01  0.2643E-01  0.2643E-01
     -3.370  0.2829E-01  0.2829E-01  0.2851E-01  0.2851E-01
     -3.296  0.3320E-01  0.3320E-01  0.3096E-01  0.3096E-01
     -3.223  0.3969E-01  0.3969E-01  0.3388E-01  0.3388E-01
     -3.149  0.4351E-01  0.4351E-01  0.3708E-01  0.3708E-01
     -3.075  0.4289E-01  0.4289E-01  0.4024E-01  0.4024E-01
     -3.002  0.4027E-01  0.4027E-01  0.4320E-01  0.4320E-01
     -2.928  0.3822E-01  0.3822E-01  0.4602E-01  0.4602E-01
     -2.855  0.3684E-01  0.3684E-01  0.4873E-01  0.4873E-01
     -2.781  0.3630E-01  0.3630E-01  0.5140E-01  0.5140E-01
     -2.707  0.3844E-01  0.3844E-01  0.5423E-01  0.5423E-01
     -2.634  0.4401E-01  0.4401E-01  0.5747E-01  0.5747E-01
     -2.560  0.5062E-01  0.5062E-01  0.6120E-01  0.6120E-01
     -2.487  0.5520E-01  0.5520E-01  0.6526E-01  0.6526E-01
     -2.413  0.5693E-01  0.5693E-01  0.6945E-01  0.6945E-01
     -2.339  0.5745E-01  0.5745E-01  0.7368E-01  0.7368E-01
     -2.266  0.5912E-01  0.5912E-01  0.7804E-01  0.7804E-01
     -2.192  0.6342E-01  0.6342E-01  0.8270E-01  0.8270E-01
     -2.118  0.7006E-01  0.7006E-01  0.8786E-01  0.8786E-01
     -2.045  0.7692E-01  0.7692E-01  0.9352E-01  0.9352E-01
     -1.971  0.8091E-01  0.8091E-01  0.9948E-01  0.9948E-01
     -1.898  0.7983E-01  0.7983E-01  0.1054E+00  0.1054E+00
     -1.824  0.7435E-01  0.7435E-01  0.1108E+00  0.1108E+00
     -1.750  0.6743E-01  0.6743E-01  0.1158E+00  0.1158E+00
     -1.677  0.6163E-01  0.6163E-01  0.1203E+00  0.1203E+00
     -1.603  0.5805E-01  0.5805E-01  0.1246E+00  0.1246E+00
     -1.529  0.5753E-01  0.5753E-01  0.1288E+00  0.1288E+00
     -1.456  0.6060E-01  0.6060E-01  0.1333E+00  0.1333E+00
     -1.382  0.6593E-01  0.6593E-01  0.1382E+00  0.1382E+00
     -1.309  0.7061E-01  0.7061E-01  0.1434E+00  0.1434E+00
     -1.235  0.7337E-01  0.7337E-01  0.1488E+00  0.1488E+00
     -1.161  0.7553E-01  0.7553E-01  0.1543E+00  0.1543E+00
     -1.088  0.7792E-01  0.7792E-01  0.1601E+00  0.1601E+00
     -1.014  0.7976E-01  0.7976E-01  0.1659E+00  0.1659E+00
     -0.940  0.8190E-01  0.8190E-01  0.1720E+00  0.1720E+00
     -0.867  0.8760E-01  0.8760E-01  0.1784E+00  0.1784E+00
     -0.793  0.9722E-01  0.9722E-01  0.1856E+00  0.1856E+00
     -0.720  0.1040E+00  0.1040E+00  0.1932E+00  0.1932E+00
     -0.646  0.9837E-01  0.9837E-01  0.2005E+00  0.2005E+00
     -0.572  0.7749E-01  0.7749E-01  0.2062E+00  0.2062E+00
     -0.499  0.4919E-01  0.4919E-01  0.2098E+00  0.2098E+00
     -0.425  0.2535E-01  0.2535E-01  0.2117E+00  0.2117E+00
     -0.351  0.1235E-01  0.1235E-01  0.2126E+00  0.2126E+00
     -0.278  0.8478E-02  0.8478E-02  0.2132E+00  0.2132E+00
     -0.204  0.8533E-02  0.8533E-02  0.2138E+00  0.2138E+00
     -0.131  0.8595E-02  0.8595E-02  0.2145E+00  0.2145E+00
     -0.057  0.7115E-02  0.7115E-02  0.2150E+00  0.2150E+00
      0.017  0.4302E-02  0.4302E-02  0.2153E+00  0.2153E+00
      0.090  0.1566E-02  0.1566E-02  0.2154E+00  0.2154E+00
      0.164  0.5527E-03  0.5527E-03  0.2154E+00  0.2154E+00
      0.237  0.1872E-02  0.1872E-02  0.2156E+00  0.2156E+00
      0.311  0.4623E-02  0.4623E-02  0.2159E+00  0.2159E+00
      0.385  0.7199E-02  0.7199E-02  0.2165E+00  0.2165E+00
      0.458  0.8734E-02  0.8734E-02  0.2171E+00  0.2171E+00
      0.532  0.9731E-02  0.9731E-02  0.2178E+00  0.2178E+00
      0.606  0.1100E-01  0.1100E-01  0.2186E+00  0.2186E+00
      0.679  0.1214E-01  0.1214E-01  0.2195E+00  0.2195E+00
      0.753  0.1168E-01  0.1168E-01  0.2204E+00  0.2204E+00
      0.826  0.9074E-02  0.9074E-02  0.2210E+00  0.2210E+00
      0.900  0.5779E-02  0.5779E-02  0.2215E+00  0.2215E+00
      0.974  0.3967E-02  0.3967E-02  0.2218E+00  0.2218E+00
      1.047  0.4488E-02  0.4488E-02  0.2221E+00  0.2221E+00
      1.121  0.6272E-02  0.6272E-02  0.2226E+00  0.2226E+00
      1.195  0.7576E-02  0.7576E-02  0.2231E+00  0.2231E+00
      1.268  0.7525E-02  0.7525E-02  0.2237E+00  0.2237E+00
      1.342  0.6275E-02  0.6275E-02  0.2241E+00  0.2241E+00
      1.415  0.4543E-02  0.4543E-02  0.2245E+00  0.2245E+00
      1.489  0.3585E-02  0.3585E-02  0.2247E+00  0.2247E+00
      1.563  0.4415E-02  0.4415E-02  0.2251E+00  0.2251E+00
      1.636  0.6238E-02  0.6238E-02  0.2255E+00  0.2255E+00
      1.710  0.6981E-02  0.6981E-02  0.2260E+00  0.2260E+00
      1.784  0.6042E-02  0.6042E-02  0.2265E+00  0.2265E+00
      1.857  0.5058E-02  0.5058E-02  0.2268E+00  0.2268E+00
      1.931  0.5468E-02  0.5468E-02  0.2272E+00  0.2272E+00
      2.004  0.6893E-02  0.6893E-02  0.2278E+00  0.2278E+00
      2.078  0.8140E-02  0.8140E-02  0.2284E+00  0.2284E+00
      2.152  0.8453E-02  0.8453E-02  0.2290E+00  0.2290E+00
      2.225  0.7731E-02  0.7731E-02  0.2295E+00  0.2295E+00
      2.299  0.6533E-02  0.6533E-02  0.2300E+00  0.2300E+00
      2.373  0.5865E-02  0.5865E-02  0.2305E+00  0.2305E+00
      2.446  0.6319E-02  0.6319E-02  0.2309E+00  0.2309E+00
      2.520  0.7296E-02  0.7296E-02  0.2315E+00  0.2315E+00
      2.593  0.7483E-02  0.7483E-02  0.2320E+00  0.2320E+00
      2.667  0.6261E-02  0.6261E-02  0.2325E+00  0.2325E+00
      2.741  0.4440E-02  0.4440E-02  0.2328E+00  0.2328E+00
      2.814  0.3292E-02  0.3292E-02  0.2330E+00  0.2330E+00
      2.888  0.3175E-02  0.3175E-02  0.2333E+00  0.2333E+00
      2.962  0.3764E-02  0.3764E-02  0.2336E+00  0.2336E+00
      3.035  0.5006E-02  0.5006E-02  0.2339E+00  0.2339E+00
      3.109  0.6659E-02  0.6659E-02  0.2344E+00  0.2344E+00
      3.182  0.7539E-02  0.7539E-02  0.2350E+00  0.2350E+00
      3.256  0.6787E-02  0.6787E-02  0.2355E+00  0.2355E+00
      3.330  0.5373E-02  0.5373E-02  0.2359E+00  0.2359E+00
      3.403  0.4964E-02  0.4964E-02  0.2362E+00  0.2362E+00
      3.477  0.5792E-02  0.5792E-02  0.2367E+00  0.2367E+00
      3.550  0.6581E-02  0.6581E-02  0.2371E+00  0.2371E+00
      3.624  0.6164E-02  0.6164E-02  0.2376E+00  0.2376E+00
      3.698  0.4739E-02  0.4739E-02  0.2379E+00  0.2379E+00
      3.771  0.3623E-02  0.3623E-02  0.2382E+00  0.2382E+00
      3.845  0.3778E-02  0.3778E-02  0.2385E+00  0.2385E+00
      3.919  0.4905E-02  0.4905E-02  0.2388E+00  0.2388E+00
      3.992  0.6197E-02  0.6196E-02  0.2393E+00  0.2393E+00
      4.066  0.7194E-02  0.7194E-02  0.2398E+00  0.2398E+00
      4.139  0.7541E-02  0.7541E-02  0.2404E+00  0.2404E+00
      4.213  0.6982E-02  0.6982E-02  0.2409E+00  0.2409E+00
      4.287  0.6061E-02  0.6061E-02  0.2413E+00  0.2413E+00
      4.360  0.5685E-02  0.5685E-02  0.2418E+00  0.2418E+00
      4.434  0.5758E-02  0.5758E-02  0.2422E+00  0.2422E+00
      4.508  0.5406E-02  0.5406E-02  0.2426E+00  0.2426E+00
      4.581  0.4506E-02  0.4506E-02  0.2429E+00  0.2429E+00
      4.655  0.3974E-02  0.3974E-02  0.2432E+00  0.2432E+00
      4.728  0.4600E-02  0.4600E-02  0.2436E+00  0.2436E+00
      4.802  0.6131E-02  0.6131E-02  0.2440E+00  0.2440E+00
      4.876  0.7444E-02  0.7444E-02  0.2446E+00  0.2446E+00
      4.949  0.7635E-02  0.7635E-02  0.2451E+00  0.2451E+00
      5.023  0.6753E-02  0.6752E-02  0.2456E+00  0.2456E+00
      5.097  0.5346E-02  0.5346E-02  0.2460E+00  0.2460E+00
      5.170  0.3959E-02  0.3959E-02  0.2463E+00  0.2463E+00
      5.244  0.3342E-02  0.3341E-02  0.2465E+00  0.2465E+00
      5.317  0.4251E-02  0.4251E-02  0.2469E+00  0.2469E+00
      5.391  0.6538E-02  0.6538E-02  0.2473E+00  0.2473E+00
      5.465  0.8943E-02  0.8943E-02  0.2480E+00  0.2480E+00
      5.538  0.1023E-01  0.1023E-01  0.2487E+00  0.2487E+00
      5.612  0.1035E-01  0.1035E-01  0.2495E+00  0.2495E+00
      5.686  0.1016E-01  0.1016E-01  0.2503E+00  0.2503E+00
      5.759  0.1017E-01  0.1017E-01  0.2510E+00  0.2510E+00
      5.833  0.1007E-01  0.1007E-01  0.2517E+00  0.2517E+00
      5.906  0.9602E-02  0.9602E-02  0.2525E+00  0.2525E+00
      5.980  0.9115E-02  0.9115E-02  0.2531E+00  0.2531E+00
      6.054  0.8970E-02  0.8970E-02  0.2538E+00  0.2538E+00
      6.127  0.9098E-02  0.9098E-02  0.2545E+00  0.2545E+00
      6.201  0.9335E-02  0.9335E-02  0.2551E+00  0.2551E+00
      6.274  0.9463E-02  0.9463E-02  0.2558E+00  0.2558E+00
      6.348  0.9178E-02  0.9178E-02  0.2565E+00  0.2565E+00
      6.422  0.8583E-02  0.8583E-02  0.2571E+00  0.2571E+00
      6.495  0.8265E-02  0.8265E-02  0.2578E+00  0.2578E+00
      6.569  0.8490E-02  0.8490E-02  0.2584E+00  0.2584E+00
      6.643  0.8792E-02  0.8791E-02  0.2590E+00  0.2590E+00
      6.716  0.8719E-02  0.8719E-02  0.2597E+00  0.2597E+00
      6.790  0.8451E-02  0.8451E-02  0.2603E+00  0.2603E+00
      6.863  0.8508E-02  0.8508E-02  0.2609E+00  0.2609E+00
      6.937  0.9199E-02  0.9199E-02  0.2616E+00  0.2616E+00
      7.011  0.1009E-01  0.1009E-01  0.2623E+00  0.2623E+00
      7.084  0.1024E-01  0.1024E-01  0.2631E+00  0.2631E+00
      7.158  0.9652E-02  0.9652E-02  0.2638E+00  0.2638E+00
      7.232  0.9520E-02  0.9520E-02  0.2645E+00  0.2645E+00
      7.305  0.1032E-01  0.1032E-01  0.2653E+00  0.2653E+00
      7.379  0.1098E-01  0.1098E-01  0.2661E+00  0.2661E+00
      7.452  0.1050E-01  0.1050E-01  0.2668E+00  0.2668E+00
      7.526  0.9192E-02  0.9192E-02  0.2675E+00  0.2675E+00
      7.600  0.8031E-02  0.8031E-02  0.2681E+00  0.2681E+00
      7.673  0.7841E-02  0.7841E-02  0.2687E+00  0.2687E+00
      7.747  0.8910E-02  0.8909E-02  0.2693E+00  0.2693E+00
      7.821  0.1077E-01  0.1077E-01  0.2701E+00  0.2701E+00
      7.894  0.1247E-01  0.1247E-01  0.2711E+00  0.2711E+00
      7.968  0.1333E-01  0.1333E-01  0.2720E+00  0.2720E+00
      8.041  0.1308E-01  0.1308E-01  0.2730E+00  0.2730E+00
      8.115  0.1181E-01  0.1181E-01  0.2739E+00  0.2739E+00
      8.189  0.1021E-01  0.1021E-01  0.2746E+00  0.2746E+00
      8.262  0.9434E-02  0.9434E-02  0.2753E+00  0.2753E+00
      8.336  0.9648E-02  0.9648E-02  0.2760E+00  0.2760E+00
      8.410  0.9739E-02  0.9739E-02  0.2767E+00  0.2767E+00
      8.483  0.9009E-02  0.9009E-02  0.2774E+00  0.2774E+00
      8.557  0.8250E-02  0.8249E-02  0.2780E+00  0.2780E+00
      8.630  0.8689E-02  0.8689E-02  0.2787E+00  0.2787E+00
      8.704  0.1038E-01  0.1038E-01  0.2794E+00  0.2794E+00
      8.778  0.1196E-01  0.1196E-01  0.2803E+00  0.2803E+00
      8.851  0.1224E-01  0.1224E-01  0.2812E+00  0.2812E+00
      8.925  0.1157E-01  0.1157E-01  0.2821E+00  0.2821E+00
      8.998  0.1096E-01  0.1096E-01  0.2829E+00  0.2829E+00
      9.072  0.1047E-01  0.1047E-01  0.2836E+00  0.2836E+00
      9.146  0.9642E-02  0.9642E-02  0.2843E+00  0.2843E+00
      9.219  0.8689E-02  0.8689E-02  0.2850E+00  0.2850E+00
      9.293  0.8176E-02  0.8176E-02  0.2856E+00  0.2856E+00
      9.367  0.8095E-02  0.8095E-02  0.2862E+00  0.2862E+00
      9.440  0.8117E-02  0.8117E-02  0.2868E+00  0.2868E+00
      9.514  0.8155E-02  0.8155E-02  0.2874E+00  0.2874E+00
      9.587  0.8270E-02  0.8270E-02  0.2880E+00  0.2880E+00
      9.661  0.8174E-02  0.8174E-02  0.2886E+00  0.2886E+00
      9.735  0.7294E-02  0.7294E-02  0.2891E+00  0.2891E+00
      9.808  0.5583E-02  0.5583E-02  0.2895E+00  0.2895E+00
      9.882  0.3675E-02  0.3675E-02  0.2898E+00  0.2898E+00
      9.956  0.2062E-02  0.2062E-02  0.2900E+00  0.2900E+00
     10.029  0.8514E-03  0.8515E-03  0.2900E+00  0.2900E+00
     10.103  0.1135E-03  0.1135E-03  0.2900E+00  0.2900E+00
     10.176 -0.1511E-03 -0.1511E-03  0.2900E+00  0.2900E+00
     10.250 -0.1369E-03 -0.1369E-03  0.2900E+00  0.2900E+00
     10.324 -0.6275E-04 -0.6276E-04  0.2900E+00  0.2900E+00
     10.397 -0.1886E-04 -0.1887E-04  0.2900E+00  0.2900E+00
     10.471 -0.3987E-05 -0.3988E-05  0.2900E+00  0.2900E+00
     10.545 -0.6107E-06 -0.6108E-06  0.2900E+00  0.2900E+00
     10.618 -0.6886E-07 -0.6887E-07  0.2900E+00  0.2900E+00
     10.692 -0.5772E-08 -0.5773E-08  0.2900E+00  0.2900E+00
     10.765 -0.3620E-09 -0.3621E-09  0.2900E+00  0.2900E+00
     10.839 -0.1706E-10 -0.1706E-10  0.2900E+00  0.2900E+00
     10.913 -0.6059E-12 -0.6061E-12  0.2900E+00  0.2900E+00
     10.986 -0.1626E-13 -0.1627E-13  0.2900E+00  0.2900E+00
     11.060 -0.3301E-15 -0.3301E-15  0.2900E+00  0.2900E+00
     11.134 -0.5027E-17 -0.5027E-17  0.2900E+00  0.2900E+00
     11.207  0.0000E+00  0.0000E+00  0.2900E+00  0.2900E+00
     11.281  0.0000E+00  0.0000E+00  0.2900E+00  0.2900E+00
     11.354  0.0000E+00  0.0000E+00  0.2900E+00  0.2900E+00
     11.428  0.0000E+00  0.0000E+00  0.2900E+00  0.2900E+00
     11.502  0.0000E+00  0.0000E+00  0.2900E+00  0.2900E+00
     11.575  0.0000E+00  0.0000E+00  0.2900E+00  0.2900E+00
     11.649  0.0000E+00  0.0000E+00  0.2900E+00  0.2900E+00
     11.723  0.0000E+00  0.0000E+00  0.2900E+00  0.2900E+00
     11.796  0.0000E+00  0.0000E+00  0.2900E+00  0.2900E+00
     11.870  0.0000E+00  0.0000E+00  0.2900E+00  0.2900E+00
