       N       E                     dE             d eps       ncg     rms          rms(c)
DAV:   1     0.327448380718E+04    0.32745E+04   -0.12742E+05  3712   0.172E+03
DAV:   2     0.384101282370E+03   -0.28904E+04   -0.27627E+04  3712   0.406E+02
DAV:   3    -0.101279706473E+03   -0.48538E+03   -0.43832E+03  3712   0.209E+02
DAV:   4    -0.134626308473E+03   -0.33347E+02   -0.32398E+02  4184   0.772E+01
DAV:   5    -0.135412907537E+03   -0.78660E+00   -0.78417E+00  4200   0.110E+01    0.524E+01
DAV:   6    -0.107316397555E+03    0.28097E+02   -0.32034E+02  4064   0.122E+02    0.266E+01
DAV:   7    -0.946676267605E+02    0.12649E+02   -0.85632E+01  4096   0.804E+01    0.135E+01
DAV:   8    -0.935982722260E+02    0.10694E+01   -0.22124E+01  4328   0.716E+01    0.131E+01
DAV:   9    -0.917470807629E+02    0.18512E+01   -0.64993E+00  5144   0.392E+01    0.101E+01
DAV:  10    -0.932291202509E+02   -0.14820E+01   -0.51749E+00  5056   0.497E+01    0.101E+01
DAV:  11    -0.933227255062E+02   -0.93605E-01   -0.75959E+00  5344   0.503E+01    0.806E+00
DAV:  12    -0.945671298229E+02   -0.12444E+01   -0.39528E+00  5080   0.357E+01    0.634E+00
DAV:  13    -0.998333713214E+02   -0.52662E+01   -0.32478E+00  5000   0.221E+01    0.424E+00
DAV:  14    -0.104826335776E+03   -0.49930E+01   -0.33275E+00  4720   0.205E+01    0.275E+00
DAV:  15    -0.110309697703E+03   -0.54834E+01   -0.45984E+00  4720   0.116E+01    0.207E+00
DAV:  16    -0.112884751750E+03   -0.25751E+01   -0.23375E+00  4080   0.841E+00    0.138E+00
DAV:  17    -0.114387082438E+03   -0.15023E+01   -0.95462E-01  4264   0.653E+00    0.114E+00
DAV:  18    -0.115986383641E+03   -0.15993E+01   -0.11729E+00  4328   0.465E+00    0.735E-01
DAV:  19    -0.116706540156E+03   -0.72016E+00   -0.39831E-01  4176   0.256E+00    0.533E-01
DAV:  20    -0.117047624282E+03   -0.34108E+00   -0.99980E-02  4336   0.267E+00    0.479E-01
DAV:  21    -0.117227861598E+03   -0.18024E+00   -0.38311E-02  4440   0.169E+00    0.361E-01
DAV:  22    -0.117522389331E+03   -0.29453E+00   -0.49442E-02  4808   0.150E+00    0.304E-01
DAV:  23    -0.117664262647E+03   -0.14187E+00   -0.13600E-02  4120   0.986E-01    0.246E-01
DAV:  24    -0.117802626499E+03   -0.13836E+00   -0.63322E-03  4240   0.109E+00    0.193E-01
DAV:  25    -0.117965813304E+03   -0.16319E+00   -0.49325E-03  4984   0.671E-01    0.140E-01
DAV:  26    -0.118137675329E+03   -0.17186E+00   -0.63983E-03  4984   0.704E-01    0.101E-01
DAV:  27    -0.118196469202E+03   -0.58794E-01   -0.12359E-03  3992   0.455E-01    0.675E-02
DAV:  28    -0.118226030872E+03   -0.29562E-01   -0.73878E-04  3168   0.257E-01    0.419E-02
DAV:  29    -0.118236250273E+03   -0.10219E-01   -0.78408E-04  3240   0.167E-01    0.311E-02
DAV:  30    -0.118238127788E+03   -0.18775E-02   -0.12372E-04  2592   0.137E-01    0.201E-02
DAV:  31    -0.118239492499E+03   -0.13647E-02   -0.87569E-05  2488   0.884E-02    0.120E-02
DAV:  32    -0.118239698549E+03   -0.20605E-03   -0.44838E-05  2464   0.648E-02    0.108E-02
DAV:  33    -0.118239789355E+03   -0.90807E-04   -0.23128E-05  2424   0.526E-02
   1 F= -.13063358E+03 E0= -.13064392E+03  d E =-.130634E+03  mag=     0.0012
       N       E                     dE             d eps       ncg     rms          rms(c)
DAV:   1    -0.118249912621E+03   -0.10214E-01   -0.22652E+01  3872   0.799E+00    0.134E+00
DAV:   2    -0.118275666228E+03   -0.25754E-01   -0.50358E-01  5376   0.529E+00    0.993E-01
DAV:   3    -0.118272218526E+03    0.34477E-02   -0.81800E-02  4200   0.614E+00    0.782E-01
DAV:   4    -0.118273208733E+03   -0.99021E-03   -0.41964E-02  4560   0.522E+00    0.572E-01
DAV:   5    -0.118267972417E+03    0.52363E-02   -0.34398E-02  4896   0.520E+00    0.245E-01
DAV:   6    -0.118266071503E+03    0.19009E-02   -0.91566E-03  6600   0.192E+00    0.769E-02
DAV:   7    -0.118266227689E+03   -0.15619E-03   -0.31853E-03  4432   0.711E-01    0.760E-02
DAV:   8    -0.118266300750E+03   -0.73061E-04   -0.15937E-03  3880   0.453E-01
   2 F= -.13067422E+03 E0= -.13068294E+03  d E =-.406334E-01  mag=     0.0006
       N       E                     dE             d eps       ncg     rms          rms(c)
DAV:   1    -0.118343466986E+03   -0.77239E-01   -0.54613E+00  3776   0.417E+00    0.548E-01
DAV:   2    -0.118355381123E+03   -0.11914E-01   -0.15543E-01  5360   0.171E+00    0.417E-01
DAV:   3    -0.118359274008E+03   -0.38929E-02   -0.21683E-02  4288   0.374E+00    0.496E-01
DAV:   4    -0.118354648924E+03    0.46251E-02   -0.16039E-02  4304   0.364E+00    0.223E-01
DAV:   5    -0.118353858589E+03    0.79033E-03   -0.38245E-03  5000   0.177E+00    0.894E-02
DAV:   6    -0.118353833290E+03    0.25299E-04   -0.20962E-03  5344   0.667E-01    0.359E-02
DAV:   7    -0.118353867669E+03   -0.34378E-04   -0.60631E-04  3440   0.248E-01
   3 F= -.13074931E+03 E0= -.13075888E+03  d E =-.115729E+00  mag=     0.0003
       N       E                     dE             d eps       ncg     rms          rms(c)
DAV:   1    -0.118378663089E+03   -0.24830E-01   -0.23930E+00  3776   0.318E+00    0.164E-01
DAV:   2    -0.118383475717E+03   -0.48126E-02   -0.51241E-02  5376   0.934E-01    0.156E-01
DAV:   3    -0.118383569382E+03   -0.93665E-04   -0.32277E-03  4176   0.990E-01    0.139E-01
DAV:   4    -0.118383429568E+03    0.13981E-03   -0.76611E-04  2544   0.730E-01
   4 F= -.13078016E+03 E0= -.13079013E+03  d E =-.308431E-01  mag=     0.0003
       N       E                     dE             d eps       ncg     rms          rms(c)
DAV:   1    -0.118393030005E+03   -0.94606E-02   -0.41928E+00  3800   0.428E+00    0.225E-01
DAV:   2    -0.118401809620E+03   -0.87796E-02   -0.87154E-02  5560   0.172E+00    0.258E-01
DAV:   3    -0.118401671412E+03    0.13821E-03   -0.11243E-02  4080   0.199E+00    0.219E-01
DAV:   4    -0.118401368776E+03    0.30264E-03   -0.26302E-03  3952   0.782E-01    0.133E-01
DAV:   5    -0.118401429610E+03   -0.60834E-04   -0.12795E-03  3992   0.654E-01
   5 F= -.13080009E+03 E0= -.13081048E+03  d E =-.507729E-01  mag=     0.0002
       N       E                     dE             d eps       ncg     rms          rms(c)
DAV:   1    -0.118401030892E+03    0.33788E-03   -0.75212E-01  3776   0.195E+00    0.856E-02
DAV:   2    -0.118402915516E+03   -0.18846E-02   -0.17665E-02  5712   0.972E-01    0.126E-01
DAV:   3    -0.118402817456E+03    0.98060E-04   -0.25760E-03  4008   0.977E-01    0.744E-02
DAV:   4    -0.118402810446E+03    0.70103E-05   -0.61089E-04  3232   0.400E-01
   6 F= -.13080237E+03 E0= -.13081312E+03  d E =-.530590E-01  mag=     0.0001
       N       E                     dE             d eps       ncg     rms          rms(c)
DAV:   1    -0.118404241533E+03   -0.14241E-02   -0.33373E+00  3888   0.365E+00    0.216E-01
DAV:   2    -0.118410820468E+03   -0.65789E-02   -0.71227E-02  5328   0.101E+00    0.197E-01
DAV:   3    -0.118410756324E+03    0.64144E-04   -0.29350E-03  4184   0.104E+00    0.160E-01
DAV:   4    -0.118410727662E+03    0.28663E-04   -0.17419E-03  3480   0.120E+00
   7 F= -.13080900E+03 E0= -.13081999E+03  d E =-.662449E-02  mag=     0.0001
       N       E                     dE             d eps       ncg     rms          rms(c)
DAV:   1    -0.118410467980E+03    0.28834E-03   -0.15975E-01  5328   0.126E+00    0.606E-02
DAV:   2    -0.118411320527E+03   -0.85255E-03   -0.36639E-03  5456   0.131E+00    0.141E-01
DAV:   3    -0.118410638816E+03    0.68171E-03   -0.15372E-03  3136   0.113E+00    0.510E-02
DAV:   4    -0.118410621257E+03    0.17559E-04   -0.31526E-04  2672   0.297E-01
   8 F= -.13080915E+03 E0= -.13082003E+03  d E =-.677325E-02  mag=     0.0001
       N       E                     dE             d eps       ncg     rms          rms(c)
DAV:   1    -0.118412014734E+03   -0.13759E-02   -0.33052E+00  3952   0.369E+00    0.153E-01
DAV:   2    -0.118418184867E+03   -0.61701E-02   -0.63395E-02  5528   0.131E+00    0.194E-01
DAV:   3    -0.118418012917E+03    0.17195E-03   -0.38824E-03  4080   0.112E+00    0.122E-01
DAV:   4    -0.118417925466E+03    0.87451E-04   -0.86611E-04  3400   0.651E-01
   9 F= -.13081522E+03 E0= -.13082592E+03  d E =-.607061E-02  mag=     0.0001
       N       E                     dE             d eps       ncg     rms          rms(c)
DAV:   1    -0.118418390855E+03   -0.37794E-03   -0.27182E-01  4112   0.116E+00    0.889E-02
DAV:   2    -0.118418915765E+03   -0.52491E-03   -0.53947E-03  5408   0.713E-01    0.101E-01
DAV:   3    -0.118418815259E+03    0.10051E-03   -0.10487E-03  3496   0.719E-01
  10 F= -.13081576E+03 E0= -.13082638E+03  d E =-.661756E-02  mag=     0.0001
       N       E                     dE             d eps       ncg     rms          rms(c)
DAV:   1    -0.118421890291E+03   -0.29745E-02   -0.71410E-01  3776   0.181E+00    0.110E-01
DAV:   2    -0.118423229526E+03   -0.13392E-02   -0.15030E-02  5432   0.716E-01    0.104E-01
DAV:   3    -0.118423246046E+03   -0.16520E-04   -0.14755E-03  3968   0.746E-01
  11 F= -.13081914E+03 E0= -.13082979E+03  d E =-.337254E-02  mag=     0.0000
       N       E                     dE             d eps       ncg     rms          rms(c)
DAV:   1    -0.118424594209E+03   -0.13647E-02   -0.95336E-01  3792   0.212E+00    0.141E-01
DAV:   2    -0.118426583514E+03   -0.19893E-02   -0.20144E-02  5728   0.113E+00    0.162E-01
DAV:   3    -0.118426372902E+03    0.21061E-03   -0.33323E-03  3952   0.121E+00    0.124E-01
DAV:   4    -0.118426267986E+03    0.10492E-03   -0.12420E-03  3800   0.623E-01
  12 F= -.13082095E+03 E0= -.13083163E+03  d E =-.519167E-02  mag=     0.0000
       N       E                     dE             d eps       ncg     rms          rms(c)
DAV:   1    -0.118428587015E+03   -0.22141E-02   -0.16401E-01  4376   0.953E-01    0.744E-02
DAV:   2    -0.118428928765E+03   -0.34175E-03   -0.38053E-03  5080   0.643E-01    0.826E-02
DAV:   3    -0.118428872459E+03    0.56305E-04   -0.63592E-04  3272   0.531E-01
  13 F= -.13082296E+03 E0= -.13083375E+03  d E =-.200060E-02  mag=     0.0000
       N       E                     dE             d eps       ncg     rms          rms(c)
DAV:   1    -0.118430731873E+03   -0.18031E-02   -0.14650E+00  3760   0.250E+00    0.212E-01
DAV:   2    -0.118434028203E+03   -0.32963E-02   -0.36343E-02  5792   0.121E+00    0.196E-01
DAV:   3    -0.118434083690E+03   -0.55487E-04   -0.51239E-03  4040   0.168E+00    0.193E-01
DAV:   4    -0.118433542414E+03    0.54128E-03   -0.19405E-03  3936   0.102E+00    0.989E-02
DAV:   5    -0.118433565631E+03   -0.23217E-04   -0.12752E-03  4080   0.627E-01
  14 F= -.13082587E+03 E0= -.13083686E+03  d E =-.491221E-02  mag=     0.0000
       N       E                     dE             d eps       ncg     rms          rms(c)
DAV:   1    -0.118435594698E+03   -0.20523E-02   -0.22270E-01  3864   0.105E+00    0.706E-02
DAV:   2    -0.118436213745E+03   -0.61905E-03   -0.62952E-03  5232   0.505E-01    0.760E-02
DAV:   3    -0.118436195209E+03    0.18536E-04   -0.63810E-04  2848   0.546E-01
  15 F= -.13082774E+03 E0= -.13083880E+03  d E =-.187047E-02  mag=     0.0000
       N       E                     dE             d eps       ncg     rms          rms(c)
DAV:   1    -0.118438653522E+03   -0.24398E-02   -0.20052E+00  3728   0.286E+00    0.234E-01
DAV:   2    -0.118442972514E+03   -0.43190E-02   -0.50072E-02  5136   0.813E-01    0.192E-01
DAV:   3    -0.118443107773E+03   -0.13526E-03   -0.34383E-03  4008   0.115E+00    0.187E-01
DAV:   4    -0.118442842869E+03    0.26490E-03   -0.21339E-03  3824   0.128E+00    0.122E-01
DAV:   5    -0.118442770699E+03    0.72170E-04   -0.11459E-03  2976   0.101E+00
  16 F= -.13083204E+03 E0= -.13084314E+03  d E =-.616870E-02  mag=     0.0000
       N       E                     dE             d eps       ncg     rms          rms(c)
DAV:   1    -0.118432290691E+03    0.10552E-01   -0.80509E+00  3728   0.572E+00    0.414E-01
DAV:   2    -0.118450733853E+03   -0.18443E-01   -0.20418E-01  5056   0.156E+00    0.348E-01
DAV:   3    -0.118450856001E+03   -0.12215E-03   -0.83442E-03  4160   0.180E+00    0.305E-01
DAV:   4    -0.118450491718E+03    0.36428E-03   -0.58523E-03  4224   0.228E+00    0.236E-01
DAV:   5    -0.118449623628E+03    0.86809E-03   -0.34473E-03  3456   0.155E+00    0.103E-01
DAV:   6    -0.118449403710E+03    0.21992E-03   -0.18186E-03  4576   0.792E-01    0.433E-02
DAV:   7    -0.118449460601E+03   -0.56891E-04   -0.94410E-04  3856   0.227E-01
  17 F= -.13083412E+03 E0= -.13084549E+03  d E =-.824853E-02  mag=     0.0000
       N       E                     dE             d eps       ncg     rms          rms(c)
DAV:   1    -0.118446153298E+03    0.32504E-02   -0.10057E+00  3744   0.201E+00    0.153E-01
DAV:   2    -0.118448203551E+03   -0.20503E-02   -0.24176E-02  5216   0.756E-01    0.145E-01
DAV:   3    -0.118448166103E+03    0.37449E-04   -0.19813E-03  4136   0.859E-01
  18 F= -.13083447E+03 E0= -.13084579E+03  d E =-.860021E-02  mag=     0.0000
       N       E                     dE             d eps       ncg     rms          rms(c)
DAV:   1    -0.118448427350E+03   -0.22380E-03   -0.16623E-01  5104   0.117E+00    0.607E-02
DAV:   2    -0.118450230241E+03   -0.18029E-02   -0.57498E-03  3952   0.186E+00    0.210E-01
DAV:   3    -0.118448607969E+03    0.16223E-02   -0.25195E-03  3232   0.148E+00    0.225E-02
DAV:   4    -0.118448678892E+03   -0.70923E-04   -0.67794E-04  3400   0.138E-01
  19 F= -.13083431E+03 E0= -.13084565E+03  d E =-.844666E-02  mag=     0.0000
       N       E                     dE             d eps       ncg     rms          rms(c)
DAV:   1    -0.118450805216E+03   -0.21972E-02   -0.39426E-01  3744   0.132E+00    0.764E-02
DAV:   2    -0.118451709388E+03   -0.90417E-03   -0.98593E-03  5104   0.347E-01    0.716E-02
DAV:   3    -0.118451681794E+03    0.27594E-04   -0.27789E-04  2624   0.183E-01
  20 F= -.13083587E+03 E0= -.13084722E+03  d E =-.155403E-02  mag=     0.0000
       N       E                     dE             d eps       ncg     rms          rms(c)
DAV:   1    -0.118453186567E+03   -0.14772E-02   -0.48572E-01  3744   0.149E+00    0.101E-01
DAV:   2    -0.118454252493E+03   -0.10659E-02   -0.11150E-02  5520   0.635E-01    0.108E-01
DAV:   3    -0.118454219834E+03    0.32658E-04   -0.15035E-03  3720   0.769E-01
  21 F= -.13083680E+03 E0= -.13084820E+03  d E =-.248733E-02  mag=     0.0000
       N       E                     dE             d eps       ncg     rms          rms(c)
DAV:   1    -0.118452559002E+03    0.16935E-02   -0.19346E+00  3728   0.294E+00    0.191E-01
DAV:   2    -0.118457041281E+03   -0.44823E-02   -0.49718E-02  5072   0.808E-01    0.180E-01
DAV:   3    -0.118456901609E+03    0.13967E-03   -0.16872E-03  4256   0.565E-01
  22 F= -.13083626E+03 E0= -.13084770E+03  d E =-.194806E-02  mag=     0.0000
       N       E                     dE             d eps       ncg     rms          rms(c)
DAV:   1    -0.118452246882E+03    0.47944E-02   -0.11412E+00  3760   0.244E+00    0.133E-01
DAV:   2    -0.118459089496E+03   -0.68426E-02   -0.34299E-02  6720   0.319E+00    0.343E-01
DAV:   3    -0.118454802847E+03    0.42866E-02   -0.10713E-02  5872   0.271E+00    0.858E-02
DAV:   4    -0.118454999648E+03   -0.19680E-03   -0.29491E-03  4112   0.390E-01    0.567E-02
DAV:   5    -0.118455031976E+03   -0.32328E-04   -0.62283E-04  3376   0.244E-01
  23 F= -.13083688E+03 E0= -.13084828E+03  d E =-.257039E-02  mag=     0.0000
       N       E                     dE             d eps       ncg     rms          rms(c)
DAV:   1    -0.118457655484E+03   -0.26558E-02   -0.43840E-01  3760   0.141E+00    0.680E-02
DAV:   2    -0.118458664893E+03   -0.10094E-02   -0.10477E-02  5296   0.487E-01    0.813E-02
DAV:   3    -0.118458643783E+03    0.21110E-04   -0.74113E-04  3528   0.482E-01
  24 F= -.13083794E+03 E0= -.13084940E+03  d E =-.105863E-02  mag=     0.0000
       N       E                     dE             d eps       ncg     rms          rms(c)
DAV:   1    -0.118459352620E+03   -0.68773E-03   -0.32433E-02  4808   0.474E-01    0.650E-02
DAV:   2    -0.118459421155E+03   -0.68536E-04   -0.58371E-04  2672   0.499E-01
  25 F= -.13083804E+03 E0= -.13084952E+03  d E =-.115674E-02  mag=     0.0000
       N       E                     dE             d eps       ncg     rms          rms(c)
DAV:   1    -0.118461305688E+03   -0.19531E-02   -0.13011E-01  4880   0.949E-01    0.641E-02
DAV:   2    -0.118461664227E+03   -0.35854E-03   -0.20949E-03  4032   0.844E-01    0.107E-01
DAV:   3    -0.118461384036E+03    0.28019E-03   -0.81225E-04  2600   0.725E-01    0.454E-02
DAV:   4    -0.118461404052E+03   -0.20016E-04   -0.39406E-04  2528   0.190E-01
  26 F= -.13083860E+03 E0= -.13085002E+03  d E =-.563626E-03  mag=     0.0000
       N       E                     dE             d eps       ncg     rms          rms(c)
DAV:   1    -0.118464580498E+03   -0.31965E-02   -0.11497E+00  3760   0.228E+00    0.883E-02
DAV:   2    -0.118467074030E+03   -0.24935E-02   -0.25978E-02  5136   0.623E-01    0.109E-01
DAV:   3    -0.118467032070E+03    0.41960E-04   -0.81222E-04  3776   0.340E-01
  27 F= -.13083998E+03 E0= -.13085136E+03  d E =-.193560E-02  mag=     0.0000
       N       E                     dE             d eps       ncg     rms          rms(c)
DAV:   1    -0.118468511500E+03   -0.14375E-02   -0.13760E-01  3816   0.840E-01    0.971E-02
DAV:   2    -0.118468803745E+03   -0.29225E-03   -0.19914E-03  3584   0.823E-01    0.118E-01
DAV:   3    -0.118468597534E+03    0.20621E-03   -0.17502E-03  4112   0.881E-01    0.721E-02
DAV:   4    -0.118468570177E+03    0.27357E-04   -0.44860E-04  2488   0.269E-01
  28 F= -.13084006E+03 E0= -.13085143E+03  d E =-.201807E-02  mag=     0.0000
       N       E                     dE             d eps       ncg     rms          rms(c)
DAV:   1    -0.118469804812E+03   -0.12073E-02   -0.85432E-02  3808   0.685E-01    0.267E-02
DAV:   2    -0.118470020140E+03   -0.21533E-03   -0.21782E-03  5264   0.324E-01    0.362E-02
DAV:   3    -0.118470015690E+03    0.44506E-05   -0.17541E-04  2464   0.235E-01
  29 F= -.13084066E+03 E0= -.13085199E+03  d E =-.597642E-03  mag=     0.0000
       N       E                     dE             d eps       ncg     rms          rms(c)
DAV:   1    -0.118471665928E+03   -0.16458E-02   -0.27408E-01  3760   0.112E+00    0.564E-02
DAV:   2    -0.118472247148E+03   -0.58122E-03   -0.63784E-03  5184   0.328E-01    0.647E-02
DAV:   3    -0.118472232635E+03    0.14513E-04   -0.24181E-04  2512   0.204E-01
  30 F= -.13084136E+03 E0= -.13085265E+03  d E =-.130191E-02  mag=     0.0000
       N       E                     dE             d eps       ncg     rms          rms(c)
DAV:   1    -0.118473331616E+03   -0.10845E-02   -0.10919E+00  3760   0.224E+00    0.119E-01
DAV:   2    -0.118475466546E+03   -0.21349E-02   -0.23562E-02  5168   0.667E-01    0.131E-01
DAV:   3    -0.118475459682E+03    0.68635E-05   -0.16974E-03  4048   0.655E-01
  31 F= -.13084157E+03 E0= -.13085276E+03  d E =-.151232E-02  mag=     0.0000
       N       E                     dE             d eps       ncg     rms          rms(c)
DAV:   1    -0.118472998597E+03    0.24679E-02   -0.32808E-01  3760   0.129E+00    0.694E-02
DAV:   2    -0.118473841577E+03   -0.84298E-03   -0.76398E-03  5984   0.540E-01    0.537E-02
DAV:   3    -0.118473894108E+03   -0.52531E-04   -0.12277E-03  3440   0.841E-01
  32 F= -.13084167E+03 E0= -.13085295E+03  d E =-.161206E-02  mag=     0.0000
       N       E                     dE             d eps       ncg     rms          rms(c)
DAV:   1    -0.118474921009E+03   -0.10794E-02   -0.50174E-02  5168   0.619E-01    0.241E-02
DAV:   2    -0.118474984773E+03   -0.63764E-04   -0.46760E-04  2784   0.297E-01
  33 F= -.13084199E+03 E0= -.13085323E+03  d E =-.321610E-03  mag=     0.0000
       N       E                     dE             d eps       ncg     rms          rms(c)
DAV:   1    -0.118476741156E+03   -0.18201E-02   -0.25492E-01  3792   0.113E+00    0.620E-02
DAV:   2    -0.118477327559E+03   -0.58640E-03   -0.62977E-03  5200   0.375E-01    0.663E-02
DAV:   3    -0.118477316737E+03    0.10822E-04   -0.56391E-04  2832   0.428E-01
  34 F= -.13084259E+03 E0= -.13085385E+03  d E =-.920938E-03  mag=     0.0000
       N       E                     dE             d eps       ncg     rms          rms(c)
DAV:   1    -0.118478366175E+03   -0.10386E-02   -0.10191E+00  3760   0.216E+00    0.126E-01
DAV:   2    -0.118480431014E+03   -0.20648E-02   -0.23372E-02  5200   0.617E-01    0.134E-01
DAV:   3    -0.118480362859E+03    0.68155E-04   -0.10463E-03  3952   0.390E-01
  35 F= -.13084219E+03 E0= -.13085343E+03  d E =-.521512E-03  mag=     0.0000
       N       E                     dE             d eps       ncg     rms          rms(c)
DAV:   1    -0.118476914245E+03    0.35168E-02   -0.56648E-01  3792   0.169E+00    0.809E-02
DAV:   2    -0.118479262904E+03   -0.23487E-02   -0.14362E-02  6624   0.168E+00    0.174E-01
DAV:   3    -0.118478182626E+03    0.10803E-02   -0.33858E-03  4864   0.149E+00    0.618E-02
DAV:   4    -0.118478210752E+03   -0.28126E-04   -0.91376E-04  3744   0.325E-01
  36 F= -.13084262E+03 E0= -.13085387E+03  d E =-.949984E-03  mag=     0.0000
       N       E                     dE             d eps       ncg     rms          rms(c)
DAV:   1    -0.118479634403E+03   -0.14518E-02   -0.10127E-01  3760   0.702E-01    0.307E-02
DAV:   2    -0.118479901307E+03   -0.26690E-03   -0.27111E-03  5072   0.217E-01    0.284E-02
DAV:   3    -0.118479908104E+03   -0.67970E-05   -0.15146E-04  2352   0.211E-01
  37 F= -.13084314E+03 E0= -.13085434E+03  d E =-.520611E-03  mag=     0.0000
       N       E                     dE             d eps       ncg     rms          rms(c)
DAV:   1    -0.118482674151E+03   -0.27728E-02   -0.91107E-01  3760   0.204E+00    0.997E-02
DAV:   2    -0.118484685310E+03   -0.20112E-02   -0.21897E-02  5104   0.565E-01    0.115E-01
DAV:   3    -0.118484645748E+03    0.39562E-04   -0.83873E-04  3752   0.320E-01
  38 F= -.13084435E+03 E0= -.13085545E+03  d E =-.172548E-02  mag=     0.0000
       N       E                     dE             d eps       ncg     rms          rms(c)
DAV:   1    -0.118485383440E+03   -0.69813E-03   -0.36428E+00  3760   0.408E+00    0.236E-01
DAV:   2    -0.118492808988E+03   -0.74255E-02   -0.83352E-02  5120   0.116E+00    0.251E-01
DAV:   3    -0.118492693753E+03    0.11524E-03   -0.46673E-03  4096   0.115E+00    0.211E-01
DAV:   4    -0.118492380295E+03    0.31346E-03   -0.11892E-03  2608   0.913E-01    0.156E-01
DAV:   5    -0.118492223170E+03    0.15712E-03   -0.11089E-03  2816   0.851E-01
  39 F= -.13084484E+03 E0= -.13085571E+03  d E =-.221560E-02  mag=     0.0000
       N       E                     dE             d eps       ncg     rms          rms(c)
DAV:   1    -0.118487165819E+03    0.52145E-02   -0.82943E-01  3760   0.201E+00    0.961E-02
DAV:   2    -0.118488999663E+03   -0.18338E-02   -0.20037E-02  5216   0.648E-01    0.124E-01
DAV:   3    -0.118488891156E+03    0.10851E-03   -0.84176E-04  3632   0.503E-01
  40 F= -.13084490E+03 E0= -.13085588E+03  d E =-.228098E-02  mag=     0.0000
       N       E                     dE             d eps       ncg     rms          rms(c)
DAV:   1    -0.118489973754E+03   -0.97409E-03   -0.99903E-02  4560   0.771E-01    0.867E-02
DAV:   2    -0.118490743159E+03   -0.76940E-03   -0.35116E-03  3824   0.125E+00    0.151E-01
DAV:   3    -0.118490083451E+03    0.65971E-03   -0.15594E-03  2864   0.114E+00    0.478E-02
DAV:   4    -0.118490082051E+03    0.14007E-05   -0.32649E-04  2560   0.295E-01
  41 F= -.13084519E+03 E0= -.13085607E+03  d E =-.285314E-03  mag=     0.0000
       N       E                     dE             d eps       ncg     rms          rms(c)
DAV:   1    -0.118489952943E+03    0.13051E-03   -0.43861E-03  5464   0.255E-01    0.186E-02
DAV:   2    -0.118489966494E+03   -0.13551E-04   -0.14761E-04  2496   0.214E-01
  42 F= -.13084525E+03 E0= -.13085614E+03  d E =-.347564E-03  mag=     0.0000
       N       E                     dE             d eps       ncg     rms          rms(c)
DAV:   1    -0.118490438234E+03   -0.48529E-03   -0.14668E-01  3792   0.832E-01    0.309E-02
DAV:   2    -0.118490763672E+03   -0.32544E-03   -0.32916E-03  5312   0.280E-01    0.435E-02
DAV:   3    -0.118490759996E+03    0.36763E-05   -0.23016E-04  2368   0.245E-01
  43 F= -.13084569E+03 E0= -.13085660E+03  d E =-.442201E-03  mag=     0.0000
       N       E                     dE             d eps       ncg     rms          rms(c)
DAV:   1    -0.118491009884E+03   -0.24621E-03   -0.42508E-02  3776   0.453E-01    0.367E-02
DAV:   2    -0.118491069948E+03   -0.60064E-04   -0.80166E-04  3360   0.136E-01
  44 F= -.13084582E+03 E0= -.13085672E+03  d E =-.565455E-03  mag=     0.0000
       N       E                     dE             d eps       ncg     rms          rms(c)
DAV:   1    -0.118490991664E+03    0.18221E-04   -0.31803E-02  4928   0.438E-01    0.573E-02
DAV:   2    -0.118491271051E+03   -0.27939E-03   -0.12420E-03  2752   0.792E-01    0.998E-02
DAV:   3    -0.118490999037E+03    0.27201E-03   -0.53553E-04  2336   0.684E-01    0.359E-02
DAV:   4    -0.118490998641E+03    0.39554E-06   -0.10319E-04  2304   0.173E-01
  45 F= -.13084607E+03 E0= -.13085704E+03  d E =-.256988E-03  mag=     0.0000
       N       E                     dE             d eps       ncg     rms          rms(c)
DAV:   1    -0.118491033334E+03   -0.34297E-04   -0.66212E-04  3152   0.169E-01    0.201E-02
DAV:   2    -0.118491055855E+03   -0.22521E-04   -0.27062E-04  2496   0.210E-01
  46 F= -.13084607E+03 E0= -.13085703E+03  d E =-.259786E-03  mag=     0.0000
       N       E                     dE             d eps       ncg     rms          rms(c)
DAV:   1    -0.118491017114E+03    0.16220E-04   -0.27287E-04  2448   0.178E-01    0.132E-02
DAV:   2    -0.118491049063E+03   -0.31949E-04   -0.10996E-04  2320   0.277E-01
  47 F= -.13084611E+03 E0= -.13085709E+03  d E =-.295568E-03  mag=     0.0000
       N       E                     dE             d eps       ncg     rms          rms(c)
DAV:   1    -0.118491041282E+03   -0.24169E-04   -0.10452E-04  2272   0.236E-01    0.404E-03
DAV:   2    -0.118491048620E+03   -0.73372E-05   -0.23414E-05  2192   0.117E-01
  48 F= -.13084609E+03 E0= -.13085706E+03  d E =-.273814E-03  mag=     0.0000
       N       E                     dE             d eps       ncg     rms          rms(c)
DAV:   1    -0.118491036929E+03    0.43537E-05   -0.21220E-05  2176   0.101E-01    0.209E-03
DAV:   2    -0.118491038565E+03   -0.16365E-05   -0.16050E-05  2000   0.236E-02
  49 F= -.13084609E+03 E0= -.13085705E+03  d E =-.270499E-03  mag=     0.0000
       N       E                     dE             d eps       ncg     rms          rms(c)
DAV:   1    -0.118490411307E+03    0.62562E-03   -0.50219E-02  3744   0.472E-01    0.245E-02
DAV:   2    -0.118490515893E+03   -0.10459E-03   -0.11258E-03  3664   0.135E-01
  50 F= -.13084627E+03 E0= -.13085726E+03  d E =-.189151E-03  mag=     0.0000
       N       E                     dE             d eps       ncg     rms          rms(c)
DAV:   1    -0.118490422449E+03   -0.11142E-04   -0.22168E-03  5200   0.138E-01    0.246E-02
DAV:   2    -0.118490418081E+03    0.43682E-05   -0.27422E-05  2160   0.779E-02
  51 F= -.13084631E+03 E0= -.13085730E+03  d E =-.224689E-03  mag=     0.0000
       N       E                     dE             d eps       ncg     rms          rms(c)
DAV:   1    -0.118490199922E+03    0.22253E-03   -0.72053E-03  5264   0.220E-01    0.218E-02
DAV:   2    -0.118490223418E+03   -0.23496E-04   -0.12490E-04  2400   0.283E-01
  52 F= -.13084638E+03 E0= -.13085737E+03  d E =-.296680E-03  mag=     0.0000
       N       E                     dE             d eps       ncg     rms          rms(c)
DAV:   1    -0.118489711378E+03    0.48854E-03   -0.28859E-02  4928   0.436E-01    0.298E-02
DAV:   2    -0.118489780248E+03   -0.68870E-04   -0.40648E-04  2512   0.363E-01
  53 F= -.13084647E+03 E0= -.13085752E+03  d E =-.386581E-03  mag=     0.0000
       N       E                     dE             d eps       ncg     rms          rms(c)
DAV:   1    -0.118489434919E+03    0.27646E-03   -0.20563E-02  5104   0.446E-01    0.410E-02
DAV:   2    -0.118489474804E+03   -0.39885E-04   -0.47693E-04  2640   0.277E-01
  54 F= -.13084674E+03 E0= -.13085775E+03  d E =-.268531E-03  mag=     0.0000
       N       E                     dE             d eps       ncg     rms          rms(c)
DAV:   1    -0.118488836485E+03    0.59843E-03   -0.33395E-02  5040   0.498E-01    0.581E-02
DAV:   2    -0.118489047549E+03   -0.21106E-03   -0.10352E-03  2624   0.702E-01    0.907E-02
DAV:   3    -0.118488842277E+03    0.20527E-03   -0.48632E-04  2432   0.625E-01    0.371E-02
DAV:   4    -0.118488844407E+03   -0.21302E-05   -0.12579E-04  2304   0.153E-01
  55 F= -.13084685E+03 E0= -.13085785E+03  d E =-.376855E-03  mag=     0.0000
       N       E                     dE             d eps       ncg     rms          rms(c)
DAV:   1    -0.118488373122E+03    0.46915E-03   -0.21496E-02  3760   0.337E-01    0.176E-02
DAV:   2    -0.118488415087E+03   -0.41965E-04   -0.44797E-04  2752   0.123E-01
  56 F= -.13084702E+03 E0= -.13085803E+03  d E =-.173466E-03  mag=     0.0000
       N       E                     dE             d eps       ncg     rms          rms(c)
DAV:   1    -0.118486989415E+03    0.13837E-02   -0.14321E-01  3744   0.802E-01    0.561E-02
DAV:   2    -0.118487338256E+03   -0.34884E-03   -0.39531E-03  5008   0.245E-01    0.594E-02
DAV:   3    -0.118487324832E+03    0.13424E-04   -0.17598E-04  2320   0.229E-01
  57 F= -.13084747E+03 E0= -.13085851E+03  d E =-.625253E-03  mag=     0.0000
       N       E                     dE             d eps       ncg     rms          rms(c)
DAV:   1    -0.118483597907E+03    0.37403E-02   -0.56664E-01  3728   0.160E+00    0.114E-01
DAV:   2    -0.118484992944E+03   -0.13950E-02   -0.15171E-02  5344   0.641E-01    0.125E-01
DAV:   3    -0.118484931445E+03    0.61499E-04   -0.14202E-03  3824   0.690E-01
  58 F= -.13084815E+03 E0= -.13085926E+03  d E =-.130444E-02  mag=     0.0000
       N       E                     dE             d eps       ncg     rms          rms(c)
DAV:   1    -0.118473612790E+03    0.11380E-01   -0.22579E+00  3744   0.319E+00    0.220E-01
DAV:   2    -0.118479646465E+03   -0.60337E-02   -0.64769E-02  5344   0.133E+00    0.253E-01
DAV:   3    -0.118479349575E+03    0.29689E-03   -0.51300E-03  4080   0.123E+00    0.206E-01
DAV:   4    -0.118479144565E+03    0.20501E-03   -0.15804E-03  3936   0.662E-01    0.149E-01
DAV:   5    -0.118479213478E+03   -0.68914E-04   -0.15274E-03  4192   0.820E-01
  59 F= -.13084853E+03 E0= -.13085962E+03  d E =-.168388E-02  mag=     0.0000
       N       E                     dE             d eps       ncg     rms          rms(c)
DAV:   1    -0.118480616712E+03   -0.14721E-02   -0.43355E-01  3760   0.154E+00    0.853E-02
DAV:   2    -0.118482151308E+03   -0.15346E-02   -0.14465E-02  6208   0.101E+00    0.141E-01
DAV:   3    -0.118481828714E+03    0.32259E-03   -0.15630E-03  3664   0.863E-01    0.876E-02
DAV:   4    -0.118481797929E+03    0.30785E-04   -0.34773E-04  2336   0.259E-01
  60 F= -.13084845E+03 E0= -.13085960E+03  d E =-.159792E-02  mag=     0.0000
       N       E                     dE             d eps       ncg     rms          rms(c)
DAV:   1    -0.118482995949E+03   -0.11672E-02   -0.17647E-01  3744   0.902E-01    0.790E-02
DAV:   2    -0.118483412875E+03   -0.41693E-03   -0.51248E-03  5264   0.396E-01    0.793E-02
DAV:   3    -0.118483378448E+03    0.34427E-04   -0.34038E-04  2496   0.345E-01
  61 F= -.13084832E+03 E0= -.13085944E+03  d E =-.146747E-02  mag=     0.0000
       N       E                     dE             d eps       ncg     rms          rms(c)
DAV:   1    -0.118482742830E+03    0.67004E-03   -0.51981E-02  5008   0.626E-01    0.543E-02
DAV:   2    -0.118483638688E+03   -0.89586E-03   -0.29190E-03  2704   0.135E+00    0.161E-01
DAV:   3    -0.118482793030E+03    0.84566E-03   -0.13477E-03  2576   0.110E+00    0.228E-02
DAV:   4    -0.118482818213E+03   -0.25183E-04   -0.26049E-04  2528   0.960E-02
  62 F= -.13084870E+03 E0= -.13085989E+03  d E =-.385164E-03  mag=     0.0000
