<?xml version="1.0" encoding="ISO-8859-1"?>
<modeling>
 <generator>
  <i name="program" type="string">vasp </i>
  <i name="version" type="string">6.3.2  </i>
  <i name="subversion" type="string">27Jun22 (build Aug 17 2022 15:43:34) complex                          parallel </i>
  <i name="platform" type="string">tv2STDVTST </i>
  <i name="date" type="string">2025 02 17 </i>
  <i name="time" type="string">19:30:32 </i>
 </generator>
 <incar>
  <i type="int" name="ISTART">     0</i>
  <i type="string" name="PREC">Normal</i>
  <i type="int" name="ISPIN">     2</i>
  <i type="int" name="ICHARG">     2</i>
  <i type="int" name="IBRION">     2</i>
  <i name="EDIFF">      0.00020000</i>
  <i name="EDIFFG">     -0.03000000</i>
  <i type="int" name="NSW">   800</i>
  <i type="int" name="ISIF">     2</i>
  <i type="int" name="ISYM">     1</i>
  <i name="ENCUT">    400.00000000</i>
  <i name="POTIM">      0.50000000</i>
  <i type="logical" name="LREAL"> F  </i>
  <i type="int" name="ISMEAR">     1</i>
  <i name="SIGMA">      0.20000000</i>
  <i type="logical" name="LWAVE"> F  </i>
  <i type="logical" name="LCHARG"> F  </i>
  <i type="string" name="GGA">PE</i>
  <i type="int" name="IVDW">    11</i>
 </incar>
 <primitive_cell>
  <structure name="primitive_cell" >
   <crystal>
    <varray name="basis" >
     <v>       7.26000023       0.00000000       0.00000000 </v>
     <v>       0.00000000       5.13359547       0.00000000 </v>
     <v>       0.00000000       0.00000000      23.98379135 </v>
    </varray>
    <i name="volume">    893.87360752 </i>
    <varray name="rec_basis" >
     <v>       0.13774104       0.00000000       0.00000000 </v>
     <v>       0.00000000       0.19479525       0.00000000 </v>
     <v>       0.00000000       0.00000000       0.04169483 </v>
    </varray>
   </crystal>
   <varray name="positions" >
    <v>       0.00000000       0.00000000       0.00000000 </v>
    <v>       0.00000000       0.50000000       0.00000000 </v>
    <v>       0.50000000       0.00000000       0.00000000 </v>
    <v>       0.50000000       0.50000000       0.00000000 </v>
    <v>       0.25000000       0.25000000       0.05351109 </v>
    <v>       0.25000000       0.75000000       0.05351109 </v>
    <v>       0.75000000       0.25000000       0.05351109 </v>
    <v>       0.75000000       0.75000000       0.05351109 </v>
    <v>       0.00000000       0.00000000       0.10541371 </v>
    <v>       0.00000000       0.50000000       0.10541371 </v>
    <v>       0.50000000       0.00000000       0.10541371 </v>
    <v>       0.50000000       0.50000000       0.10541371 </v>
    <v>       0.25000000       0.25000000       0.15715010 </v>
    <v>       0.25000000       0.75000000       0.15715010 </v>
    <v>       0.75000000       0.25000000       0.15715010 </v>
    <v>       0.75000000       0.75000000       0.15715010 </v>
    <v>       0.00000000       0.00000000       0.20866257 </v>
    <v>       0.00000000       0.50000000       0.20866257 </v>
    <v>       0.50000000       0.00000000       0.20866257 </v>
    <v>       0.50000000       0.50000000       0.20866257 </v>
    <v>       0.25000000       0.25000000       0.25947965 </v>
    <v>       0.25000000       0.75000000       0.25947965 </v>
    <v>       0.75000000       0.25000000       0.25947965 </v>
    <v>       0.75000000       0.75000000       0.25947965 </v>
    <v>       0.00000000       0.00000000       0.31415415 </v>
    <v>       0.00000000       0.50000000       0.31415415 </v>
    <v>       0.50000000       0.00000000       0.31415415 </v>
    <v>       0.50000000       0.50000000       0.31415415 </v>
    <v>       0.25000000       0.25000000       0.36181799 </v>
    <v>       0.25000000       0.75000000       0.36181799 </v>
    <v>       0.75000000       0.25000000       0.36181799 </v>
    <v>       0.75000000       0.75000000       0.36181799 </v>
    <v>       0.75000000       0.75000000       0.42690792 </v>
    <v>       0.75000000       0.89531725       0.42690792 </v>
   </varray>
  </structure>
  <varray name="primitive_index" >
   <v type="int" >        1 </v>
   <v type="int" >        2 </v>
   <v type="int" >        3 </v>
   <v type="int" >        4 </v>
   <v type="int" >        5 </v>
   <v type="int" >        6 </v>
   <v type="int" >        7 </v>
   <v type="int" >        8 </v>
   <v type="int" >        9 </v>
   <v type="int" >       10 </v>
   <v type="int" >       11 </v>
   <v type="int" >       12 </v>
   <v type="int" >       13 </v>
   <v type="int" >       14 </v>
   <v type="int" >       15 </v>
   <v type="int" >       16 </v>
   <v type="int" >       17 </v>
   <v type="int" >       18 </v>
   <v type="int" >       19 </v>
   <v type="int" >       20 </v>
   <v type="int" >       21 </v>
   <v type="int" >       22 </v>
   <v type="int" >       23 </v>
   <v type="int" >       24 </v>
   <v type="int" >       25 </v>
   <v type="int" >       26 </v>
   <v type="int" >       27 </v>
   <v type="int" >       28 </v>
   <v type="int" >       29 </v>
   <v type="int" >       30 </v>
   <v type="int" >       31 </v>
   <v type="int" >       32 </v>
   <v type="int" >       33 </v>
   <v type="int" >       34 </v>
  </varray>
 </primitive_cell>
 <kpoints>
  <generation param="Monkhorst-Pack">
   <v type="int" name="divisions">       3        3        1 </v>
   <v name="usershift">      0.00000000       0.00000000       0.00000000 </v>
   <v name="genvec1">      0.33333333       0.00000000       0.00000000 </v>
   <v name="genvec2">      0.00000000       0.33333333       0.00000000 </v>
   <v name="genvec3">      0.00000000       0.00000000       1.00000000 </v>
   <v name="shift">      0.00000000       0.00000000       0.00000000 </v>
  </generation>
  <varray name="kpointlist" >
   <v>       0.00000000       0.00000000       0.00000000 </v>
   <v>       0.33333333       0.00000000       0.00000000 </v>
   <v>       0.00000000       0.33333333       0.00000000 </v>
   <v>       0.33333333       0.33333333       0.00000000 </v>
  </varray>
  <varray name="weights" >
   <v>       0.11111111 </v>
   <v>       0.22222222 </v>
   <v>       0.22222222 </v>
   <v>       0.44444444 </v>
  </varray>
 </kpoints>
 <parameters>
  <separator name="general" >
   <i type="string" name="SYSTEM">unknown system</i>
   <i type="logical" name="LCOMPAT"> F  </i>
  </separator>
  <separator name="electronic" >
   <i type="string" name="PREC">normal</i>
   <i name="ENMAX">    400.00000000</i>
   <i name="ENAUG">    586.98000000</i>
   <i name="EDIFF">      0.00020000</i>
   <i type="int" name="IALGO">    38</i>
   <i type="int" name="IWAVPR">    11</i>
   <i type="int" name="NBANDS">   232</i>
   <i type="int" name="NBANDSLOW">    -1</i>
   <i type="int" name="NBANDSHIGH">    -1</i>
   <i name="NELECT">    354.00000000</i>
   <i type="int" name="TURBO">     0</i>
   <i type="int" name="IRESTART">     0</i>
   <i type="int" name="NREBOOT">     0</i>
   <i type="int" name="NMIN">     0</i>
   <i name="EREF">      0.00000000</i>
   <separator name="electronic smearing" >
    <i type="int" name="ISMEAR">     1</i>
    <i name="SIGMA">      0.20000000</i>
    <i name="KSPACING">      0.50000000</i>
    <i type="logical" name="KGAMMA"> T  </i>
    <i type="logical" name="KBLOWUP"> T  </i>
   </separator>
   <separator name="electronic projectors" >
    <i type="logical" name="LREAL"> F  </i>
    <v name="ROPT">      0.00000000      0.00000000</v>
    <i type="int" name="LMAXPAW">  -100</i>
    <i type="int" name="LMAXMIX">     2</i>
    <i type="logical" name="NLSPLINE"> F  </i>
   </separator>
   <separator name="electronic startup" >
    <i type="int" name="ISTART">     0</i>
    <i type="int" name="ICHARG">     2</i>
    <i type="int" name="INIWAV">     1</i>
   </separator>
   <separator name="electronic spin" >
    <i type="int" name="ISPIN">     2</i>
    <i type="logical" name="LNONCOLLINEAR"> F  </i>
    <v name="MAGMOM">      1.00000000      1.00000000      1.00000000      1.00000000      1.00000000      1.00000000      1.00000000      1.00000000      1.00000000      1.00000000      1.00000000      1.00000000      1.00000000      1.00000000      1.00000000      1.00000000      1.00000000      1.00000000      1.00000000      1.00000000
      1.00000000      1.00000000      1.00000000      1.00000000      1.00000000      1.00000000      1.00000000      1.00000000      1.00000000      1.00000000      1.00000000      1.00000000      1.00000000      1.00000000</v>
    <i name="NUPDOWN">     -1.00000000</i>
    <i type="logical" name="LSORBIT"> F  </i>
    <v name="SAXIS">      0.00000000      0.00000000      1.00000000</v>
    <i type="logical" name="LSPIRAL"> F  </i>
    <v name="QSPIRAL">      0.00000000      0.00000000      0.00000000</v>
    <i type="logical" name="LZEROZ"> F  </i>
   </separator>
   <separator name="electronic exchange-correlation" >
    <i type="logical" name="LASPH"> F  </i>
    <i type="logical" name="LMETAGGA"> F  </i>
   </separator>
   <separator name="electronic convergence" >
    <i type="int" name="NELM">    60</i>
    <i type="int" name="NELMDL">    -5</i>
    <i type="int" name="NELMIN">     2</i>
    <i name="ENINI">    400.00000000</i>
    <separator name="electronic convergence detail" >
     <i type="logical" name="LDIAG"> T  </i>
     <i type="logical" name="LSUBROT"> F  </i>
     <i name="WEIMIN">      0.00100000</i>
     <i name="EBREAK">      0.00000022</i>
     <i name="DEPER">      0.30000000</i>
     <i type="int" name="NRMM">     4</i>
     <i name="TIME">      0.40000000</i>
    </separator>
   </separator>
   <separator name="electronic mixer" >
    <i name="AMIX">      0.40000000</i>
    <i name="BMIX">      1.00000000</i>
    <i name="AMIN">      0.10000000</i>
    <i name="AMIX_MAG">      1.60000000</i>
    <i name="BMIX_MAG">      1.00000000</i>
    <separator name="electronic mixer details" >
     <i type="int" name="IMIX">     4</i>
     <i type="logical" name="MIXFIRST"> F  </i>
     <i type="int" name="MAXMIX">   -45</i>
     <i name="WC">    100.00000000</i>
     <i type="int" name="INIMIX">     1</i>
     <i type="int" name="MIXPRE">     1</i>
     <i type="int" name="MREMOVE">     5</i>
    </separator>
   </separator>
   <separator name="electronic dipolcorrection" >
    <i type="logical" name="LDIPOL"> F  </i>
    <i type="logical" name="LMONO"> F  </i>
    <i type="int" name="IDIPOL">     0</i>
    <i name="EPSILON">      1.00000000</i>
    <v name="DIPOL">   -100.00000000   -100.00000000   -100.00000000</v>
    <i name="EFIELD">      0.00000000</i>
   </separator>
  </separator>
  <separator name="grids" >
   <i type="int" name="NGX">    36</i>
   <i type="int" name="NGY">    28</i>
   <i type="int" name="NGZ">   120</i>
   <i type="int" name="NGXF">    72</i>
   <i type="int" name="NGYF">    56</i>
   <i type="int" name="NGZF">   240</i>
   <i type="logical" name="ADDGRID"> F  </i>
  </separator>
  <separator name="ionic" >
   <i type="int" name="NSW">   800</i>
   <i type="int" name="IBRION">     2</i>
   <i type="int" name="MDALGO">     0</i>
   <i type="int" name="ISIF">     2</i>
   <i name="PSTRESS">      0.00000000</i>
   <i name="EDIFFG">     -0.03000000</i>
   <i type="int" name="NFREE">     1</i>
   <i name="POTIM">      0.50000000</i>
   <i name="SMASS">     -3.00000000</i>
   <i name="SCALEE">      1.00000000</i>
  </separator>
  <separator name="ionic md" >
   <i name="TEBEG">      0.00010000</i>
   <i name="TEEND">      0.00010000</i>
   <i type="int" name="NBLOCK">     1</i>
   <i type="int" name="KBLOCK">   800</i>
   <i type="int" name="NPACO">   256</i>
   <i name="APACO">     10.00000000</i>
  </separator>
  <separator name="symmetry" >
   <i type="int" name="ISYM">     1</i>
   <i name="SYMPREC">      0.00001000</i>
  </separator>
  <separator name="dos" >
   <i type="int" name="LORBIT">     0</i>
   <v name="RWIGS">     -1.00000000     -1.00000000</v>
   <i type="int" name="NEDOS">   301</i>
   <i name="EMIN">     10.00000000</i>
   <i name="EMAX">    -10.00000000</i>
   <i name="EFERMI">      0.00000000</i>
  </separator>
  <separator name="writing" >
   <i type="int" name="NWRITE">     2</i>
   <i type="logical" name="LWAVE"> F  </i>
   <i type="logical" name="LDOWNSAMPLE"> F  </i>
   <i type="logical" name="LCHARG"> F  </i>
   <i type="logical" name="LPARD"> F  </i>
   <i type="logical" name="LVTOT"> F  </i>
   <i type="logical" name="LVHAR"> F  </i>
   <i type="logical" name="LELF"> F  </i>
   <i type="logical" name="LOPTICS"> F  </i>
   <v name="STM">      0.00000000      0.00000000      0.00000000      0.00000000      0.00000000      0.00000000      0.00000000</v>
  </separator>
  <separator name="performance" >
   <i type="int" name="NPAR">     4</i>
   <i type="int" name="NSIM">     4</i>
   <i type="int" name="NBLK">    -1</i>
   <i type="logical" name="LPLANE"> T  </i>
   <i type="logical" name="LSCALAPACK"> T  </i>
   <i type="logical" name="LSCAAWARE"> F  </i>
   <i type="logical" name="LSCALU"> F  </i>
   <i type="logical" name="LASYNC"> F  </i>
   <i type="logical" name="LORBITALREAL"> F  </i>
  </separator>
  <separator name="miscellaneous" >
   <i type="int" name="IDIOT">     3</i>
   <i type="int" name="PHON_NSTRUCT">    -1</i>
   <i type="logical" name="LMUSIC"> F  </i>
   <v name="POMASS">     63.54600000      1.00000000</v>
   <v name="DARWINR">      0.00000000      0.00000000</v>
   <v name="DARWINV">      1.00000000      1.00000000</v>
   <i type="logical" name="LCORR"> T  </i>
  </separator>
  <i type="logical" name="GGA_COMPAT"> T  </i>
  <i type="logical" name="LBERRY"> F  </i>
  <i type="int" name="ICORELEVEL">     0</i>
  <i type="logical" name="LDAU"> F  </i>
  <i type="int" name="I_CONSTRAINED_M">     0</i>
  <separator name="electronic exchange-correlation" >
   <i type="string" name="GGA">PE</i>
   <i type="int" name="VOSKOWN">     0</i>
   <i type="logical" name="LHFCALC"> F  </i>
   <i type="string" name="PRECFOCK"></i>
   <i type="logical" name="LSYMGRAD"> F  </i>
   <i type="logical" name="LHFONE"> F  </i>
   <i type="logical" name="LRHFCALC"> F  </i>
   <i type="logical" name="LTHOMAS"> F  </i>
   <i type="logical" name="LMODELHF"> F  </i>
   <i type="logical" name="LFOCKACE"> F  </i>
   <i name="ENCUT4O">     -1.00000000</i>
   <i type="int" name="EXXOEP">     0</i>
   <i type="int" name="FOURORBIT">     0</i>
   <i name="AEXX">      0.00000000</i>
   <i name="HFALPHA">      0.00000000</i>
   <i name="MCALPHA">      0.00000000</i>
   <i name="ALDAX">      1.00000000</i>
   <i name="AGGAX">      1.00000000</i>
   <i name="ALDAC">      1.00000000</i>
   <i name="AGGAC">      1.00000000</i>
   <i type="int" name="NKREDX">     1</i>
   <i type="int" name="NKREDY">     1</i>
   <i type="int" name="NKREDZ">     1</i>
   <i type="logical" name="SHIFTRED"> F  </i>
   <i type="logical" name="ODDONLY"> F  </i>
   <i type="logical" name="EVENONLY"> F  </i>
   <i type="int" name="LMAXFOCK">     0</i>
   <i type="int" name="NMAXFOCKAE">     0</i>
   <i type="logical" name="LFOCKAEDFT"> F  </i>
   <i name="HFSCREEN">      0.00000000</i>
   <i name="HFSCREENC">      0.00000000</i>
   <i type="int" name="NBANDSGWLOW">     0</i>
  </separator>
  <separator name="vdW DFT" >
   <i type="logical" name="LUSE_VDW"> F  </i>
   <i name="Zab_VDW">     -0.84910000</i>
   <i name="PARAM1">      0.12340000</i>
   <i name="PARAM2">      1.00000000</i>
   <i name="PARAM3">      0.00000000</i>
  </separator>
  <separator name="model GW" >
   <i type="int" name="MODEL_GW">     0</i>
   <i name="MODEL_EPS0">     15.77424013</i>
   <i name="MODEL_ALPHA">      1.00000000</i>
  </separator>
  <separator name="linear response parameters" >
   <i type="logical" name="LEPSILON"> F  </i>
   <i type="logical" name="LRPA"> F  </i>
   <i type="logical" name="LNABLA"> F  </i>
   <i type="logical" name="LVEL"> F  </i>
   <i name="CSHIFT">      0.10000000</i>
   <i name="OMEGAMAX">     -1.00000000</i>
   <i name="DEG_THRESHOLD">      0.00200000</i>
   <i name="RTIME">     -0.10000000</i>
   <i name="WPLASMAI">      0.00000000</i>
   <v name="DFIELD">      0.00000000      0.00000000      0.00000000</v>
   <v name="WPLASMA">      0.00000000      0.00000000      0.00000000      0.00000000      0.00000000      0.00000000      0.00000000      0.00000000      0.00000000</v>
  </separator>
  <separator name="orbital magnetization" >
   <i type="logical" name="NUCIND"> F  </i>
   <v name="MAGPOS">      0.00000000      0.00000000      0.00000000</v>
   <i type="logical" name="LNICSALL"> T  </i>
   <i type="logical" name="ORBITALMAG"> F  </i>
   <i type="logical" name="LMAGBLOCH"> F  </i>
   <i type="logical" name="LCHIMAG"> F  </i>
   <i type="logical" name="LGAUGE"> T  </i>
   <i type="int" name="MAGATOM">     0</i>
   <v name="MAGDIPOL">      0.00000000      0.00000000      0.00000000</v>
   <v name="AVECCONST">      0.00000000      0.00000000      0.00000000</v>
  </separator>
  <separator name="response functions" >
   <i type="logical" name="LFINITE_TEMPERATURE"> F  </i>
   <i type="logical" name="LADDER"> F  </i>
   <i type="logical" name="LRPAFORCE"> F  </i>
   <i type="logical" name="LFXC"> F  </i>
   <i type="logical" name="LHARTREE"> T  </i>
   <i type="int" name="IBSE">     0</i>
   <v type="int" name="KPOINT">    -1     0     0     0</v>
   <i type="logical" name="LTCTC"> F  </i>
   <i type="logical" name="LTCTE"> F  </i>
   <i type="logical" name="LTETE"> F  </i>
   <i type="logical" name="LTRIPLET"> F  </i>
   <i type="logical" name="LFXCEPS"> F  </i>
   <i type="logical" name="LFXHEG"> F  </i>
   <i type="int" name="NATURALO">     2</i>
   <i type="logical" name="LHOLEGF"> F  </i>
   <i type="logical" name="L2ORDER"> F  </i>
   <i type="logical" name="LDMP1"> F  </i>
   <i type="logical" name="LMP2LT"> F  </i>
   <i type="logical" name="LSMP2LT"> F  </i>
   <i type="logical" name="LGWLF"> F  </i>
   <i name="ENCUTGW">     -2.00000000</i>
   <i name="ENCUTGWSOFT">     -2.00000000</i>
   <i name="ENCUTLF">     -1.00000000</i>
   <i type="logical" name="LESF_SPLINES"> F  </i>
   <i type="int" name="LMAXMP2">    -1</i>
   <i name="SCISSOR">      0.00000000</i>
   <i type="int" name="NOMEGA">     0</i>
   <i type="int" name="NOMEGAR">     0</i>
   <i type="int" name="NBANDSGW">    -1</i>
   <i type="int" name="NBANDSO">    -1</i>
   <i type="int" name="NBANDSV">    -1</i>
   <i type="int" name="NELMGW">     1</i>
   <i type="int" name="NELMHF">     1</i>
   <i type="int" name="DIM">     3</i>
   <i type="int" name="IESPILON">     4</i>
   <i type="int" name="ANTIRES">     0</i>
   <i name="OMEGAMAX">    -30.00000000</i>
   <i name="OMEGAMIN">    -30.00000000</i>
   <i name="OMEGATL">   -200.00000000</i>
   <i type="int" name="OMEGAGRID">     0</i>
   <i name="CSHIFT">     -0.10000000</i>
   <i type="logical" name="LSELFENERGY"> F  </i>
   <i type="logical" name="LSPECTRAL"> F  </i>
   <i type="logical" name="LSPECTRALGW"> F  </i>
   <i type="logical" name="LSINGLES"> F  </i>
   <i type="logical" name="LFERMIGW"> F  </i>
   <i type="logical" name="ODDONLYGW"> F  </i>
   <i type="logical" name="EVENONLYGW"> F  </i>
   <i type="int" name="NKREDLFX">     1</i>
   <i type="int" name="NKREDLFY">     1</i>
   <i type="int" name="NKREDLFZ">     1</i>
   <i type="int" name="MAXMEM">  2800</i>
   <i type="int" name="TELESCOPE">     0</i>
   <i type="int" name="NTAUPAR">    -1</i>
   <i type="int" name="NOMEGAPAR">    -1</i>
   <i name="DAMP_NEWTON">      0.80000001</i>
   <i name="LAMBDA">      1.00000000</i>
  </separator>
  <separator name="External order field" >
   <i name="OFIELD_KAPPA">      0.00000000</i>
   <v name="OFIELD_K">      0.00000000      0.00000000      0.00000000</v>
   <i name="OFIELD_Q6_NEAR">      0.00000000</i>
   <i name="OFIELD_Q6_FAR">      0.00000000</i>
   <i name="OFIELD_A">      0.00000000</i>
  </separator>
  <separator name="optional k-points parameters" >
   <i type="int" name="KPOINTS_OPT_MODE">     1</i>
   <i type="logical" name="LKPOINTS_OPT"> F  </i>
  </separator>
 </parameters>
 <atominfo>
  <atoms>      34 </atoms>
  <types>       2 </types>
  <array name="atoms" >
   <dimension dim="1">ion</dimension>
   <field type="string">element</field>
   <field type="int">atomtype</field>
   <set>
    <rc><c>Cu</c><c>   1</c></rc>
    <rc><c>Cu</c><c>   1</c></rc>
    <rc><c>Cu</c><c>   1</c></rc>
    <rc><c>Cu</c><c>   1</c></rc>
    <rc><c>Cu</c><c>   1</c></rc>
    <rc><c>Cu</c><c>   1</c></rc>
    <rc><c>Cu</c><c>   1</c></rc>
    <rc><c>Cu</c><c>   1</c></rc>
    <rc><c>Cu</c><c>   1</c></rc>
    <rc><c>Cu</c><c>   1</c></rc>
    <rc><c>Cu</c><c>   1</c></rc>
    <rc><c>Cu</c><c>   1</c></rc>
    <rc><c>Cu</c><c>   1</c></rc>
    <rc><c>Cu</c><c>   1</c></rc>
    <rc><c>Cu</c><c>   1</c></rc>
    <rc><c>Cu</c><c>   1</c></rc>
    <rc><c>Cu</c><c>   1</c></rc>
    <rc><c>Cu</c><c>   1</c></rc>
    <rc><c>Cu</c><c>   1</c></rc>
    <rc><c>Cu</c><c>   1</c></rc>
    <rc><c>Cu</c><c>   1</c></rc>
    <rc><c>Cu</c><c>   1</c></rc>
    <rc><c>Cu</c><c>   1</c></rc>
    <rc><c>Cu</c><c>   1</c></rc>
    <rc><c>Cu</c><c>   1</c></rc>
    <rc><c>Cu</c><c>   1</c></rc>
    <rc><c>Cu</c><c>   1</c></rc>
    <rc><c>Cu</c><c>   1</c></rc>
    <rc><c>Cu</c><c>   1</c></rc>
    <rc><c>Cu</c><c>   1</c></rc>
    <rc><c>Cu</c><c>   1</c></rc>
    <rc><c>Cu</c><c>   1</c></rc>
    <rc><c>H </c><c>   2</c></rc>
    <rc><c>H </c><c>   2</c></rc>
   </set>
  </array>
  <array name="atomtypes" >
   <dimension dim="1">type</dimension>
   <field type="int">atomspertype</field>
   <field type="string">element</field>
   <field>mass</field>
   <field>valence</field>
   <field type="string">pseudopotential</field>
   <set>
    <rc><c>  32</c><c>Cu</c><c>     63.54600000</c><c>     11.00000000</c><c>  PAW_PBE Cu 22Jun2005                  </c></rc>
    <rc><c>   2</c><c>H </c><c>      1.00000000</c><c>      1.00000000</c><c>  PAW_PBE H 15Jun2001                   </c></rc>
   </set>
  </array>
 </atominfo>
 <structure name="initialpos" >
  <crystal>
   <varray name="basis" >
    <v>       7.26000023       0.00000000       0.00000000 </v>
    <v>       0.00000000       5.13359547       0.00000000 </v>
    <v>       0.00000000       0.00000000      23.98379135 </v>
   </varray>
   <i name="volume">    893.87360752 </i>
   <varray name="rec_basis" >
    <v>       0.13774104       0.00000000       0.00000000 </v>
    <v>       0.00000000       0.19479525       0.00000000 </v>
    <v>       0.00000000       0.00000000       0.04169483 </v>
   </varray>
  </crystal>
  <varray name="positions" >
   <v>       0.00000000       0.00000000       0.00000000 </v>
   <v>       0.00000000       0.50000000       0.00000000 </v>
   <v>       0.50000000       0.00000000       0.00000000 </v>
   <v>       0.50000000       0.50000000       0.00000000 </v>
   <v>       0.25000000       0.25000000       0.05351109 </v>
   <v>       0.25000000       0.75000000       0.05351109 </v>
   <v>       0.75000000       0.25000000       0.05351109 </v>
   <v>       0.75000000       0.75000000       0.05351109 </v>
   <v>       0.00000000       0.00000000       0.10541371 </v>
   <v>       0.00000000       0.50000000       0.10541371 </v>
   <v>       0.50000000       0.00000000       0.10541371 </v>
   <v>       0.50000000       0.50000000       0.10541371 </v>
   <v>       0.25000000       0.25000000       0.15715010 </v>
   <v>       0.25000000       0.75000000       0.15715010 </v>
   <v>       0.75000000       0.25000000       0.15715010 </v>
   <v>       0.75000000       0.75000000       0.15715010 </v>
   <v>       0.00000000       0.00000000       0.20866257 </v>
   <v>       0.00000000       0.50000000       0.20866257 </v>
   <v>       0.50000000       0.00000000       0.20866257 </v>
   <v>       0.50000000       0.50000000       0.20866257 </v>
   <v>       0.25000000       0.25000000       0.25947965 </v>
   <v>       0.25000000       0.75000000       0.25947965 </v>
   <v>       0.75000000       0.25000000       0.25947965 </v>
   <v>       0.75000000       0.75000000       0.25947965 </v>
   <v>       0.00000000       0.00000000       0.31415415 </v>
   <v>       0.00000000       0.50000000       0.31415415 </v>
   <v>       0.50000000       0.00000000       0.31415415 </v>
   <v>       0.50000000       0.50000000       0.31415415 </v>
   <v>       0.25000000       0.25000000       0.36181799 </v>
   <v>       0.25000000       0.75000000       0.36181799 </v>
   <v>       0.75000000       0.25000000       0.36181799 </v>
   <v>       0.75000000       0.75000000       0.36181799 </v>
   <v>       0.75000000       0.75000000       0.42690792 </v>
   <v>       0.75000000       0.89531725       0.42690792 </v>
  </varray>
  <varray name="selective"  type="logical" >
   <v type="logical" >  F  F  F </v>
   <v type="logical" >  F  F  F </v>
   <v type="logical" >  F  F  F </v>
   <v type="logical" >  F  F  F </v>
   <v type="logical" >  F  F  F </v>
   <v type="logical" >  F  F  F </v>
   <v type="logical" >  F  F  F </v>
   <v type="logical" >  F  F  F </v>
   <v type="logical" >  F  F  F </v>
   <v type="logical" >  F  F  F </v>
   <v type="logical" >  F  F  F </v>
   <v type="logical" >  F  F  F </v>
   <v type="logical" >  T  T  T </v>
   <v type="logical" >  T  T  T </v>
   <v type="logical" >  T  T  T </v>
   <v type="logical" >  T  T  T </v>
   <v type="logical" >  T  T  T </v>
   <v type="logical" >  T  T  T </v>
   <v type="logical" >  T  T  T </v>
   <v type="logical" >  T  T  T </v>
   <v type="logical" >  T  T  T </v>
   <v type="logical" >  T  T  T </v>
   <v type="logical" >  T  T  T </v>
   <v type="logical" >  T  T  T </v>
   <v type="logical" >  T  T  T </v>
   <v type="logical" >  T  T  T </v>
   <v type="logical" >  T  T  T </v>
   <v type="logical" >  T  T  T </v>
   <v type="logical" >  T  T  T </v>
   <v type="logical" >  T  T  T </v>
   <v type="logical" >  T  T  T </v>
   <v type="logical" >  T  T  T </v>
   <v type="logical" >  T  T  T </v>
   <v type="logical" >  T  T  T </v>
  </varray>
  <nose>
   <v>      -3.00000000       0.00000000       0.00010000       0.00010000 </v>
  </nose>
 </structure>
 <calculation>
  <scstep>
   <time name="dav">    7.60    7.66</time>
   <time name="total">    7.69    7.75</time>
   <energy>
    <i name="alphaZ">    844.48149002 </i>
    <i name="ewald"> 173302.39980196 </i>
    <i name="hartreedc">-216435.04451558 </i>
    <i name="XCdc">   1468.87849622 </i>
    <i name="pawpsdc">  39302.70853331 </i>
    <i name="pawaedc"> -42689.07521165 </i>
    <i name="eentropy">     -0.00233389 </i>
    <i name="bandstr">   2944.53579506 </i>
    <i name="atom">  44535.60175172 </i>
    <i name="e_fr_energy">   3274.48380718 </i>
    <i name="e_wo_entrp">   3274.48614107 </i>
    <i name="e_0_energy">   3274.48458514 </i>
   </energy>
  </scstep>
  <scstep>
   <time name="dav">    7.50    7.56</time>
   <time name="total">    7.50    7.57</time>
   <energy>
    <i name="e_fr_energy">    384.10128237 </i>
    <i name="e_wo_entrp">    384.08080442 </i>
    <i name="e_0_energy">    384.09445639 </i>
   </energy>
  </scstep>
  <scstep>
   <time name="dav">    7.46    7.52</time>
   <time name="total">    7.46    7.52</time>
   <energy>
    <i name="e_fr_energy">   -101.27970647 </i>
    <i name="e_wo_entrp">   -101.29251451 </i>
    <i name="e_0_energy">   -101.28397582 </i>
   </energy>
  </scstep>
  <scstep>
   <time name="dav">    8.22    8.29</time>
   <time name="total">    8.22    8.29</time>
   <energy>
    <i name="e_fr_energy">   -134.62630847 </i>
    <i name="e_wo_entrp">   -134.63837292 </i>
    <i name="e_0_energy">   -134.63032995 </i>
   </energy>
  </scstep>
  <scstep>
   <time name="dav">    8.18    8.26</time>
   <time name="total">    8.57    8.65</time>
   <energy>
    <i name="e_fr_energy">   -135.41290754 </i>
    <i name="e_wo_entrp">   -135.42631352 </i>
    <i name="e_0_energy">   -135.41737620 </i>
   </energy>
  </scstep>
  <scstep>
   <time name="dav">    7.97    8.04</time>
   <time name="total">    8.42    8.49</time>
   <energy>
    <i name="e_fr_energy">   -107.31639755 </i>
    <i name="e_wo_entrp">   -107.31496853 </i>
    <i name="e_0_energy">   -107.31592121 </i>
   </energy>
  </scstep>
  <scstep>
   <time name="dav">    8.02    8.08</time>
   <time name="total">    8.46    8.53</time>
   <energy>
    <i name="e_fr_energy">    -94.66762676 </i>
    <i name="e_wo_entrp">    -94.65592711 </i>
    <i name="e_0_energy">    -94.66372688 </i>
   </energy>
  </scstep>
  <scstep>
   <time name="dav">    8.37    8.44</time>
   <time name="total">    8.82    8.89</time>
   <energy>
    <i name="e_fr_energy">    -93.59827223 </i>
    <i name="e_wo_entrp">    -93.60741248 </i>
    <i name="e_0_energy">    -93.60131898 </i>
   </energy>
  </scstep>
  <scstep>
   <time name="dav">    9.61    9.68</time>
   <time name="total">   10.04   10.12</time>
   <energy>
    <i name="e_fr_energy">    -91.74708076 </i>
    <i name="e_wo_entrp">    -91.74306521 </i>
    <i name="e_0_energy">    -91.74574225 </i>
   </energy>
  </scstep>
  <scstep>
   <time name="dav">    9.52    9.61</time>
   <time name="total">    9.97   10.07</time>
   <energy>
    <i name="e_fr_energy">    -93.22912025 </i>
    <i name="e_wo_entrp">    -93.23738546 </i>
    <i name="e_0_energy">    -93.23187532 </i>
   </energy>
  </scstep>
  <scstep>
   <time name="dav">    9.89    9.99</time>
   <time name="total">   10.33   10.43</time>
   <energy>
    <i name="e_fr_energy">    -93.32272551 </i>
    <i name="e_wo_entrp">    -93.30460057 </i>
    <i name="e_0_energy">    -93.31668386 </i>
   </energy>
  </scstep>
  <scstep>
   <time name="dav">    9.49    9.58</time>
   <time name="total">    9.94   10.03</time>
   <energy>
    <i name="e_fr_energy">    -94.56712982 </i>
    <i name="e_wo_entrp">    -94.53669857 </i>
    <i name="e_0_energy">    -94.55698607 </i>
   </energy>
  </scstep>
  <scstep>
   <time name="dav">    9.37    9.45</time>
   <time name="total">    9.82    9.90</time>
   <energy>
    <i name="e_fr_energy">    -99.83337132 </i>
    <i name="e_wo_entrp">    -99.81903238 </i>
    <i name="e_0_energy">    -99.82859167 </i>
   </energy>
  </scstep>
  <scstep>
   <time name="dav">    8.95    9.02</time>
   <time name="total">    9.41    9.48</time>
   <energy>
    <i name="e_fr_energy">   -104.82633578 </i>
    <i name="e_wo_entrp">   -104.81635394 </i>
    <i name="e_0_energy">   -104.82300850 </i>
   </energy>
  </scstep>
  <scstep>
   <time name="dav">    8.95    9.02</time>
   <time name="total">    9.40    9.48</time>
   <energy>
    <i name="e_fr_energy">   -110.30969770 </i>
    <i name="e_wo_entrp">   -110.34646384 </i>
    <i name="e_0_energy">   -110.32195308 </i>
   </energy>
  </scstep>
  <scstep>
   <time name="dav">    7.98    8.05</time>
   <time name="total">    8.44    8.51</time>
   <energy>
    <i name="e_fr_energy">   -112.88475175 </i>
    <i name="e_wo_entrp">   -112.94169096 </i>
    <i name="e_0_energy">   -112.90373149 </i>
   </energy>
  </scstep>
  <scstep>
   <time name="dav">    8.24    8.31</time>
   <time name="total">    8.70    8.77</time>
   <energy>
    <i name="e_fr_energy">   -114.38708244 </i>
    <i name="e_wo_entrp">   -114.44797075 </i>
    <i name="e_0_energy">   -114.40737854 </i>
   </energy>
  </scstep>
  <scstep>
   <time name="dav">    8.34    8.41</time>
   <time name="total">    8.78    8.85</time>
   <energy>
    <i name="e_fr_energy">   -115.98638364 </i>
    <i name="e_wo_entrp">   -116.03392440 </i>
    <i name="e_0_energy">   -116.00223056 </i>
   </energy>
  </scstep>
  <scstep>
   <time name="dav">    8.15    8.22</time>
   <time name="total">    8.60    8.67</time>
   <energy>
    <i name="e_fr_energy">   -116.70654016 </i>
    <i name="e_wo_entrp">   -116.74279422 </i>
    <i name="e_0_energy">   -116.71862484 </i>
   </energy>
  </scstep>
  <scstep>
   <time name="dav">    8.35    8.42</time>
   <time name="total">    8.79    8.86</time>
   <energy>
    <i name="e_fr_energy">   -117.04762428 </i>
    <i name="e_wo_entrp">   -117.08008815 </i>
    <i name="e_0_energy">   -117.05844557 </i>
   </energy>
  </scstep>
  <scstep>
   <time name="dav">    8.54    8.61</time>
   <time name="total">    9.01    9.08</time>
   <energy>
    <i name="e_fr_energy">   -117.22786160 </i>
    <i name="e_wo_entrp">   -117.25928387 </i>
    <i name="e_0_energy">   -117.23833569 </i>
   </energy>
  </scstep>
  <scstep>
   <time name="dav">    9.04    9.12</time>
   <time name="total">    9.50    9.57</time>
   <energy>
    <i name="e_fr_energy">   -117.52238933 </i>
    <i name="e_wo_entrp">   -117.55294538 </i>
    <i name="e_0_energy">   -117.53257468 </i>
   </energy>
  </scstep>
  <scstep>
   <time name="dav">    8.02    8.10</time>
   <time name="total">    8.48    8.55</time>
   <energy>
    <i name="e_fr_energy">   -117.66426265 </i>
    <i name="e_wo_entrp">   -117.69481304 </i>
    <i name="e_0_energy">   -117.67444611 </i>
   </energy>
  </scstep>
  <scstep>
   <time name="dav">    8.18    8.25</time>
   <time name="total">    8.64    8.71</time>
   <energy>
    <i name="e_fr_energy">   -117.80262650 </i>
    <i name="e_wo_entrp">   -117.83313583 </i>
    <i name="e_0_energy">   -117.81279628 </i>
   </energy>
  </scstep>
  <scstep>
   <time name="dav">    9.32    9.39</time>
   <time name="total">    9.78    9.86</time>
   <energy>
    <i name="e_fr_energy">   -117.96581330 </i>
    <i name="e_wo_entrp">   -117.99667226 </i>
    <i name="e_0_energy">   -117.97609962 </i>
   </energy>
  </scstep>
  <scstep>
   <time name="dav">    9.29    9.37</time>
   <time name="total">    9.75    9.83</time>
   <energy>
    <i name="e_fr_energy">   -118.13767533 </i>
    <i name="e_wo_entrp">   -118.16861831 </i>
    <i name="e_0_energy">   -118.14798965 </i>
   </energy>
  </scstep>
  <scstep>
   <time name="dav">    7.79    7.85</time>
   <time name="total">    8.25    8.31</time>
   <energy>
    <i name="e_fr_energy">   -118.19646920 </i>
    <i name="e_wo_entrp">   -118.22742824 </i>
    <i name="e_0_energy">   -118.20678888 </i>
   </energy>
  </scstep>
  <scstep>
   <time name="dav">    6.59    6.64</time>
   <time name="total">    7.03    7.09</time>
   <energy>
    <i name="e_fr_energy">   -118.22603087 </i>
    <i name="e_wo_entrp">   -118.25700491 </i>
    <i name="e_0_energy">   -118.23635555 </i>
   </energy>
  </scstep>
  <scstep>
   <time name="dav">    6.70    6.76</time>
   <time name="total">    7.16    7.22</time>
   <energy>
    <i name="e_fr_energy">   -118.23625027 </i>
    <i name="e_wo_entrp">   -118.26733004 </i>
    <i name="e_0_energy">   -118.24661019 </i>
   </energy>
  </scstep>
  <scstep>
   <time name="dav">    5.74    5.79</time>
   <time name="total">    6.20    6.25</time>
   <energy>
    <i name="e_fr_energy">   -118.23812779 </i>
    <i name="e_wo_entrp">   -118.26913489 </i>
    <i name="e_0_energy">   -118.24846349 </i>
   </energy>
  </scstep>
  <scstep>
   <time name="dav">    5.58    5.63</time>
   <time name="total">    6.05    6.10</time>
   <energy>
    <i name="e_fr_energy">   -118.23949250 </i>
    <i name="e_wo_entrp">   -118.27049147 </i>
    <i name="e_0_energy">   -118.24982549 </i>
   </energy>
  </scstep>
  <scstep>
   <time name="dav">    5.55    5.59</time>
   <time name="total">    6.01    6.06</time>
   <energy>
    <i name="e_fr_energy">   -118.23969855 </i>
    <i name="e_wo_entrp">   -118.27073736 </i>
    <i name="e_0_energy">   -118.25004482 </i>
   </energy>
  </scstep>
  <scstep>
   <time name="dav">    5.49    5.53</time>
   <time name="total">    5.57    5.61</time>
   <energy>
    <i name="alphaZ">    844.48149002 </i>
    <i name="ewald"> 173302.39980196 </i>
    <i name="hartreedc">-216067.09900783 </i>
    <i name="XCdc">   1432.08269978 </i>
    <i name="pawpsdc">  41995.42311162 </i>
    <i name="pawaedc"> -45444.06054833 </i>
    <i name="eentropy">      0.03101318 </i>
    <i name="bandstr">   -717.10010148 </i>
    <i name="atom">  44535.60175172 </i>
    <i name="e_fr_energy">   -118.23978936 </i>
    <i name="e_wo_entrp">   -118.27080253 </i>
    <i name="e_0_energy">   -118.25012708 </i>
   </energy>
  </scstep>
  <structure>
   <crystal>
    <varray name="basis" >
     <v>       7.26000023       0.00000000       0.00000000 </v>
     <v>       0.00000000       5.13359547       0.00000000 </v>
     <v>       0.00000000       0.00000000      23.98379135 </v>
    </varray>
    <i name="volume">    893.87360752 </i>
    <varray name="rec_basis" >
     <v>       0.13774104       0.00000000       0.00000000 </v>
     <v>       0.00000000       0.19479525       0.00000000 </v>
     <v>       0.00000000       0.00000000       0.04169483 </v>
    </varray>
   </crystal>
   <varray name="positions" >
    <v>       0.00000000       0.00000000       0.00000000 </v>
    <v>       0.00000000       0.50000000       0.00000000 </v>
    <v>       0.50000000       0.00000000       0.00000000 </v>
    <v>       0.50000000       0.50000000       0.00000000 </v>
    <v>       0.25000000       0.25000000       0.05351109 </v>
    <v>       0.25000000       0.75000000       0.05351109 </v>
    <v>       0.75000000       0.25000000       0.05351109 </v>
    <v>       0.75000000       0.75000000       0.05351109 </v>
    <v>       0.00000000       0.00000000       0.10541371 </v>
    <v>       0.00000000       0.50000000       0.10541371 </v>
    <v>       0.50000000       0.00000000       0.10541371 </v>
    <v>       0.50000000       0.50000000       0.10541371 </v>
    <v>       0.25000000       0.25000000       0.15715010 </v>
    <v>       0.25000000       0.75000000       0.15715010 </v>
    <v>       0.75000000       0.25000000       0.15715010 </v>
    <v>       0.75000000       0.75000000       0.15715010 </v>
    <v>       0.00000000       0.00000000       0.20866257 </v>
    <v>       0.00000000       0.50000000       0.20866257 </v>
    <v>       0.50000000       0.00000000       0.20866257 </v>
    <v>       0.50000000       0.50000000       0.20866257 </v>
    <v>       0.25000000       0.25000000       0.25947965 </v>
    <v>       0.25000000       0.75000000       0.25947965 </v>
    <v>       0.75000000       0.25000000       0.25947965 </v>
    <v>       0.75000000       0.75000000       0.25947965 </v>
    <v>       0.00000000       0.00000000       0.31415415 </v>
    <v>       0.00000000       0.50000000       0.31415415 </v>
    <v>       0.50000000       0.00000000       0.31415415 </v>
    <v>       0.50000000       0.50000000       0.31415415 </v>
    <v>       0.25000000       0.25000000       0.36181799 </v>
    <v>       0.25000000       0.75000000       0.36181799 </v>
    <v>       0.75000000       0.25000000       0.36181799 </v>
    <v>       0.75000000       0.75000000       0.36181799 </v>
    <v>       0.75000000       0.75000000       0.42690792 </v>
    <v>       0.75000000       0.89531725       0.42690792 </v>
   </varray>
  </structure>
  <varray name="forces" >
   <v>       0.02576892      -0.01485720       0.43564732 </v>
   <v>       0.01638945       0.01501711       0.43672124 </v>
   <v>      -0.02576892      -0.01485720       0.43564732 </v>
   <v>      -0.01638945       0.01501711       0.43672124 </v>
   <v>       0.00000000      -0.01172031      -0.47046105 </v>
   <v>       0.00000000       0.01154869      -0.50063126 </v>
   <v>       0.00000000       0.00213766      -0.42378300 </v>
   <v>       0.00000000      -0.00294376      -0.43029565 </v>
   <v>      -0.00796333       0.00054527      -0.02414346 </v>
   <v>       0.00264244       0.00011968      -0.02572345 </v>
   <v>       0.00796333       0.00054527      -0.02414346 </v>
   <v>      -0.00264244       0.00011968      -0.02572345 </v>
   <v>       0.00000000      -0.00549452      -0.00641499 </v>
   <v>       0.00000000       0.00683817       0.00672388 </v>
   <v>       0.00000000       0.00436846       0.06724211 </v>
   <v>       0.00000000      -0.00284422       0.03231845 </v>
   <v>       0.01868973       0.00969941       0.00411862 </v>
   <v>      -0.00042908      -0.01106905      -0.01578825 </v>
   <v>      -0.01868973       0.00969941       0.00411862 </v>
   <v>       0.00042908      -0.01106905      -0.01578825 </v>
   <v>       0.00000000       0.00839852      -0.03192128 </v>
   <v>       0.00000000      -0.00913449      -0.00488050 </v>
   <v>       0.00000000      -0.04540370       0.08188618 </v>
   <v>       0.00000000       0.02582908       0.17638879 </v>
   <v>       0.09115697       0.04505072      -0.11992498 </v>
   <v>       0.03339717      -0.02942933      -0.01433896 </v>
   <v>      -0.09115697       0.04505072      -0.11992498 </v>
   <v>      -0.03339717      -0.02942933      -0.01433896 </v>
   <v>       0.00000000       0.00232689       0.01314928 </v>
   <v>       0.00000000      -0.00544924      -0.02692107 </v>
   <v>       0.00000000       0.20678779      -0.16874690 </v>
   <v>       0.00000000       0.04308014      -0.86149192 </v>
   <v>       0.00000000      -2.16231361       1.24791425 </v>
   <v>       0.00000000       1.90383522      -0.05321146 </v>
  </varray>
  <varray name="stress" >
   <v>     -31.75018027       0.00000000       0.00000000 </v>
   <v>       0.00000000     -25.92640657      -0.71338253 </v>
   <v>       0.00000000      -0.71338253      -3.86300031 </v>
  </varray>
  <energy>
   <i name="e_fr_energy">   -130.63358468 </i>
   <i name="e_wo_entrp">   -130.66459786 </i>
   <i name="e_0_energy">   -130.64392241 </i>
  </energy>
  <time name="totalsc">  293.87  296.29</time>
 </calculation>
 <calculation>
  <scstep>
   <time name="dav">    7.59    7.65</time>
   <time name="total">    8.05    8.11</time>
   <energy>
    <i name="alphaZ">    844.48149002 </i>
    <i name="ewald"> 173524.64481823 </i>
    <i name="hartreedc">-216292.37578081 </i>
    <i name="XCdc">   1431.90389415 </i>
    <i name="pawpsdc">  41995.33051414 </i>
    <i name="pawaedc"> -45443.94925728 </i>
    <i name="eentropy">      0.02501974 </i>
    <i name="bandstr">   -713.91236253 </i>
    <i name="atom">  44535.60175172 </i>
    <i name="e_fr_energy">   -118.24991262 </i>
    <i name="e_wo_entrp">   -118.27493236 </i>
    <i name="e_0_energy">   -118.25825253 </i>
   </energy>
  </scstep>
  <scstep>
   <time name="dav">    9.84    9.92</time>
   <time name="total">   10.30   10.38</time>
   <energy>
    <i name="e_fr_energy">   -118.27566623 </i>
    <i name="e_wo_entrp">   -118.30095256 </i>
    <i name="e_0_energy">   -118.28409501 </i>
   </energy>
  </scstep>
  <scstep>
   <time name="dav">    8.09    8.16</time>
   <time name="total">    8.55    8.62</time>
   <energy>
    <i name="e_fr_energy">   -118.27221853 </i>
    <i name="e_wo_entrp">   -118.29848627 </i>
    <i name="e_0_energy">   -118.28097444 </i>
   </energy>
  </scstep>
  <scstep>
   <time name="dav">    8.62    8.69</time>
   <time name="total">    9.07    9.14</time>
   <energy>
    <i name="e_fr_energy">   -118.27320873 </i>
    <i name="e_wo_entrp">   -118.29892361 </i>
    <i name="e_0_energy">   -118.28178036 </i>
   </energy>
  </scstep>
  <scstep>
   <time name="dav">    9.12    9.19</time>
   <time name="total">    9.58    9.66</time>
   <energy>
    <i name="e_fr_energy">   -118.26797242 </i>
    <i name="e_wo_entrp">   -118.29428112 </i>
    <i name="e_0_energy">   -118.27674198 </i>
   </energy>
  </scstep>
  <scstep>
   <time name="dav">   11.76   11.86</time>
   <time name="total">   12.22   12.32</time>
   <energy>
    <i name="e_fr_energy">   -118.26607150 </i>
    <i name="e_wo_entrp">   -118.29241640 </i>
    <i name="e_0_energy">   -118.27485314 </i>
   </energy>
  </scstep>
  <scstep>
   <time name="dav">    8.42    8.49</time>
   <time name="total">    8.88    8.95</time>
   <energy>
    <i name="e_fr_energy">   -118.26622769 </i>
    <i name="e_wo_entrp">   -118.29221061 </i>
    <i name="e_0_energy">   -118.27488866 </i>
   </energy>
  </scstep>
  <scstep>
   <time name="dav">    7.61    7.67</time>
   <time name="total">    7.69    7.75</time>
   <energy>
    <i name="alphaZ">    844.48149002 </i>
    <i name="ewald"> 173524.64481823 </i>
    <i name="hartreedc">-216280.46493633 </i>
    <i name="XCdc">   1431.70687394 </i>
    <i name="pawpsdc">  41980.52931112 </i>
    <i name="pawaedc"> -45429.03440015 </i>
    <i name="eentropy">      0.02615738 </i>
    <i name="bandstr">   -725.75736670 </i>
    <i name="atom">  44535.60175172 </i>
    <i name="e_fr_energy">   -118.26630075 </i>
    <i name="e_wo_entrp">   -118.29245813 </i>
    <i name="e_0_energy">   -118.27501988 </i>
   </energy>
  </scstep>
  <structure>
   <crystal>
    <varray name="basis" >
     <v>       7.26000023       0.00000000       0.00000000 </v>
     <v>       0.00000000       5.13359547       0.00000000 </v>
     <v>       0.00000000       0.00000000      23.98379135 </v>
    </varray>
    <i name="volume">    893.87360752 </i>
    <varray name="rec_basis" >
     <v>       0.13774104       0.00000000       0.00000000 </v>
     <v>       0.00000000       0.19479525       0.00000000 </v>
     <v>       0.00000000       0.00000000       0.04169483 </v>
    </varray>
   </crystal>
   <varray name="positions" >
    <v>       0.00000000       0.00000000       0.00000000 </v>
    <v>       0.00000000       0.50000000       0.00000000 </v>
    <v>       0.50000000       0.00000000       0.00000000 </v>
    <v>       0.50000000       0.50000000       0.00000000 </v>
    <v>       0.25000000       0.25000000       0.05351109 </v>
    <v>       0.25000000       0.75000000       0.05351109 </v>
    <v>       0.75000000       0.25000000       0.05351109 </v>
    <v>       0.75000000       0.75000000       0.05351109 </v>
    <v>       0.00000000       0.00000000       0.10541371 </v>
    <v>       0.00000000       0.50000000       0.10541371 </v>
    <v>       0.50000000       0.00000000       0.10541371 </v>
    <v>       0.50000000       0.50000000       0.10541371 </v>
    <v>       0.25000000       0.24994837       0.15713719 </v>
    <v>       0.25000000       0.75006426       0.15716362 </v>
    <v>       0.75000000       0.25004105       0.15728535 </v>
    <v>       0.75000000       0.74997327       0.15721510 </v>
    <v>       0.00012419       0.00009115       0.20867085 </v>
    <v>      -0.00000285       0.49989598       0.20863081 </v>
    <v>       0.49987581       0.00009115       0.20867085 </v>
    <v>       0.50000285       0.49989598       0.20863081 </v>
    <v>       0.25000000       0.25007892       0.25941544 </v>
    <v>       0.25000000       0.74991416       0.25946984 </v>
    <v>       0.75000000       0.24957332       0.25964436 </v>
    <v>       0.75000000       0.75024273       0.25983445 </v>
    <v>       0.00060574       0.00042336       0.31391292 </v>
    <v>       0.00022192       0.49972344       0.31412531 </v>
    <v>       0.49939426       0.00042336       0.31391292 </v>
    <v>       0.49977808       0.49972344       0.31412531 </v>
    <v>       0.25000000       0.25002187       0.36184444 </v>
    <v>       0.25000000       0.74994879       0.36176384 </v>
    <v>       0.75000000       0.25194328       0.36147856 </v>
    <v>       0.75000000       0.75040484       0.36008513 </v>
    <v>       0.75000000       0.72967979       0.42941806 </v>
    <v>       0.75000000       0.91320843       0.42680089 </v>
   </varray>
  </structure>
  <varray name="forces" >
   <v>       0.02439984      -0.01458205       0.43036862 </v>
   <v>       0.01576331       0.01568231       0.43234226 </v>
   <v>      -0.02439984      -0.01458205       0.43036862 </v>
   <v>      -0.01576331       0.01568231       0.43234226 </v>
   <v>       0.00000000      -0.01049225      -0.46972395 </v>
   <v>       0.00000000       0.01155484      -0.50055101 </v>
   <v>       0.00000000       0.00134769      -0.41781427 </v>
   <v>       0.00000000      -0.00280266      -0.42887669 </v>
   <v>      -0.01235511       0.00236102      -0.02312648 </v>
   <v>      -0.00175838       0.00028430      -0.02721282 </v>
   <v>       0.01235511       0.00236102      -0.02312648 </v>
   <v>       0.00175838       0.00028430      -0.02721282 </v>
   <v>       0.00000000      -0.00054458      -0.01026827 </v>
   <v>       0.00000000       0.00345439       0.00321267 </v>
   <v>       0.00000000      -0.00249429       0.04320301 </v>
   <v>       0.00000000       0.00060606       0.03621318 </v>
   <v>       0.00293943       0.00119479      -0.00727294 </v>
   <v>      -0.00926723      -0.00193435      -0.00334053 </v>
   <v>      -0.00293943       0.00119479      -0.00727294 </v>
   <v>       0.00926723      -0.00193435      -0.00334053 </v>
   <v>       0.00000000       0.01327126      -0.02124726 </v>
   <v>       0.00000000      -0.01142541      -0.00795913 </v>
   <v>       0.00000000      -0.02288532       0.02862206 </v>
   <v>       0.00000000       0.00924907      -0.04412138 </v>
   <v>       0.09896374       0.04932863      -0.10644820 </v>
   <v>       0.07677499      -0.02661107      -0.05108401 </v>
   <v>      -0.09896374       0.04932863      -0.10644820 </v>
   <v>      -0.07677499      -0.02661107      -0.05108401 </v>
   <v>       0.00000000       0.00277087       0.00940793 </v>
   <v>       0.00000000      -0.00354357      -0.02117323 </v>
   <v>       0.00000000       0.07699386       0.04114215 </v>
   <v>       0.00000000       0.15611619       0.51585321 </v>
   <v>       0.00000000       1.19075272       0.17474943 </v>
   <v>       0.00000000      -1.46337605      -0.21912024 </v>
  </varray>
  <varray name="stress" >
   <v>     -29.22006329       0.00000000       0.00000000 </v>
   <v>       0.00000000     -29.32053601      -0.69055648 </v>
   <v>       0.00000000      -0.69055650      -4.25724684 </v>
  </varray>
  <energy>
   <i name="e_fr_energy">   -130.67421813 </i>
   <i name="e_wo_entrp">   -130.70037551 </i>
   <i name="e_0_energy">   -130.68293725 </i>
  </energy>
  <time name="totalsc">   89.36   90.10</time>
 </calculation>
 <calculation>
  <scstep>
   <time name="dav">    7.44    7.50</time>
   <time name="total">    7.91    7.97</time>
   <energy>
    <i name="alphaZ">    844.48149002 </i>
    <i name="ewald"> 173412.37895901 </i>
    <i name="hartreedc">-216166.46348651 </i>
    <i name="XCdc">   1431.79449602 </i>
    <i name="pawpsdc">  41981.06442935 </i>
    <i name="pawaedc"> -45429.64779098 </i>
    <i name="eentropy">      0.02935904 </i>
    <i name="bandstr">   -727.58267467 </i>
    <i name="atom">  44535.60175172 </i>
    <i name="e_fr_energy">   -118.34346699 </i>
    <i name="e_wo_entrp">   -118.37282603 </i>
    <i name="e_0_energy">   -118.35325333 </i>
   </energy>
  </scstep>
  <scstep>
   <time name="dav">    9.84    9.92</time>
   <time name="total">   10.30   10.38</time>
   <energy>
    <i name="e_fr_energy">   -118.35538112 </i>
    <i name="e_wo_entrp">   -118.38439506 </i>
    <i name="e_0_energy">   -118.36505244 </i>
   </energy>
  </scstep>
  <scstep>
   <time name="dav">    8.24    8.31</time>
   <time name="total">    8.71    8.78</time>
   <energy>
    <i name="e_fr_energy">   -118.35927401 </i>
    <i name="e_wo_entrp">   -118.38823584 </i>
    <i name="e_0_energy">   -118.36892795 </i>
   </energy>
  </scstep>
  <scstep>
   <time name="dav">    8.25    8.32</time>
   <time name="total">    8.71    8.78</time>
   <energy>
    <i name="e_fr_energy">   -118.35464892 </i>
    <i name="e_wo_entrp">   -118.38394083 </i>
    <i name="e_0_energy">   -118.36441289 </i>
   </energy>
  </scstep>
  <scstep>
   <time name="dav">    9.29    9.36</time>
   <time name="total">    9.75    9.83</time>
   <energy>
    <i name="e_fr_energy">   -118.35385859 </i>
    <i name="e_wo_entrp">   -118.38226032 </i>
    <i name="e_0_energy">   -118.36332583 </i>
   </energy>
  </scstep>
  <scstep>
   <time name="dav">    9.82    9.90</time>
   <time name="total">   10.28   10.36</time>
   <energy>
    <i name="e_fr_energy">   -118.35383329 </i>
    <i name="e_wo_entrp">   -118.38264145 </i>
    <i name="e_0_energy">   -118.36343601 </i>
   </energy>
  </scstep>
  <scstep>
   <time name="dav">    6.97    7.03</time>
   <time name="total">    7.05    7.11</time>
   <energy>
    <i name="alphaZ">    844.48149002 </i>
    <i name="ewald"> 173412.37895901 </i>
    <i name="hartreedc">-216171.38412478 </i>
    <i name="XCdc">   1431.88274748 </i>
    <i name="pawpsdc">  41988.08578784 </i>
    <i name="pawaedc"> -45436.70253628 </i>
    <i name="eentropy">      0.02868695 </i>
    <i name="bandstr">   -722.72662964 </i>
    <i name="atom">  44535.60175172 </i>
    <i name="e_fr_energy">   -118.35386767 </i>
    <i name="e_wo_entrp">   -118.38255462 </i>
    <i name="e_0_energy">   -118.36342999 </i>
   </energy>
  </scstep>
  <structure>
   <crystal>
    <varray name="basis" >
     <v>       7.26000023       0.00000000       0.00000000 </v>
     <v>       0.00000000       5.13359547       0.00000000 </v>
     <v>       0.00000000       0.00000000      23.98379135 </v>
    </varray>
    <i name="volume">    893.87360752 </i>
    <varray name="rec_basis" >
     <v>       0.13774104       0.00000000       0.00000000 </v>
     <v>       0.00000000       0.19479525       0.00000000 </v>
     <v>       0.00000000       0.00000000       0.04169483 </v>
    </varray>
   </crystal>
   <varray name="positions" >
    <v>       0.00000000       0.00000000       0.00000000 </v>
    <v>       0.00000000       0.50000000       0.00000000 </v>
    <v>       0.50000000       0.00000000       0.00000000 </v>
    <v>       0.50000000       0.50000000       0.00000000 </v>
    <v>       0.25000000       0.25000000       0.05351109 </v>
    <v>       0.25000000       0.75000000       0.05351109 </v>
    <v>       0.75000000       0.25000000       0.05351109 </v>
    <v>       0.75000000       0.75000000       0.05351109 </v>
    <v>       0.00000000       0.00000000       0.10541371 </v>
    <v>       0.00000000       0.50000000       0.10541371 </v>
    <v>       0.50000000       0.00000000       0.10541371 </v>
    <v>       0.50000000       0.50000000       0.10541371 </v>
    <v>       0.25000000       0.24997436       0.15714369 </v>
    <v>       0.25000000       0.75003191       0.15715681 </v>
    <v>       0.75000000       0.25002039       0.15721726 </v>
    <v>       0.75000000       0.74998673       0.15718238 </v>
    <v>       0.00006167       0.00004526       0.20866668 </v>
    <v>      -0.00000142       0.49994835       0.20864680 </v>
    <v>       0.49993833       0.00004526       0.20866668 </v>
    <v>       0.50000142       0.49994835       0.20864680 </v>
    <v>       0.25000000       0.25003919       0.25944777 </v>
    <v>       0.25000000       0.74995737       0.25947478 </v>
    <v>       0.75000000       0.24978813       0.25956144 </v>
    <v>       0.75000000       0.75012053       0.25965583 </v>
    <v>       0.00030079       0.00021023       0.31403437 </v>
    <v>       0.00011020       0.49986267       0.31413983 </v>
    <v>       0.49969921       0.00021023       0.31403437 </v>
    <v>       0.49988980       0.49986267       0.31413983 </v>
    <v>       0.25000000       0.25001086       0.36183112 </v>
    <v>       0.25000000       0.74997457       0.36179110 </v>
    <v>       0.75000000       0.25096496       0.36164944 </v>
    <v>       0.75000000       0.75020103       0.36095751 </v>
    <v>       0.75000000       0.73990968       0.42815437 </v>
    <v>       0.75000000       0.90420140       0.42685477 </v>
   </varray>
  </structure>
  <varray name="forces" >
   <v>       0.02565514      -0.01492510       0.43165116 </v>
   <v>       0.01647297       0.01499732       0.43307299 </v>
   <v>      -0.02565514      -0.01492510       0.43165116 </v>
   <v>      -0.01647297       0.01499732       0.43307299 </v>
   <v>       0.00000000      -0.01147670      -0.46891208 </v>
   <v>       0.00000000       0.01134575      -0.49939483 </v>
   <v>       0.00000000       0.00156914      -0.41944026 </v>
   <v>       0.00000000      -0.00311857      -0.42832839 </v>
   <v>      -0.01006778       0.00119556      -0.02139012 </v>
   <v>       0.00079662      -0.00010467      -0.02430859 </v>
   <v>       0.01006778       0.00119556      -0.02139012 </v>
   <v>      -0.00079662      -0.00010467      -0.02430859 </v>
   <v>       0.00000000      -0.00404379      -0.00742900 </v>
   <v>       0.00000000       0.00570632       0.00731033 </v>
   <v>       0.00000000       0.00111617       0.06401456 </v>
   <v>       0.00000000      -0.00158839       0.03940981 </v>
   <v>       0.01237199       0.00580510       0.00087180 </v>
   <v>      -0.00552192      -0.00755726      -0.00909053 </v>
   <v>      -0.01237199       0.00580510       0.00087180 </v>
   <v>       0.00552192      -0.00755726      -0.00909053 </v>
   <v>       0.00000000       0.01136846      -0.02902873 </v>
   <v>       0.00000000      -0.01163520      -0.00592883 </v>
   <v>       0.00000000      -0.03837050       0.06099682 </v>
   <v>       0.00000000       0.01948041       0.08256289 </v>
   <v>       0.10188986       0.05007021      -0.12095199 </v>
   <v>       0.05820991      -0.03099066      -0.03193238 </v>
   <v>      -0.10188986       0.05007021      -0.12095199 </v>
   <v>      -0.05820991      -0.03099066      -0.03193238 </v>
   <v>       0.00000000       0.00251966       0.01443963 </v>
   <v>       0.00000000      -0.00540927      -0.02511698 </v>
   <v>       0.00000000       0.15262582      -0.08360902 </v>
   <v>       0.00000000       0.13915898      -0.09938826 </v>
   <v>       0.00000000       0.13071391       0.70066933 </v>
   <v>       0.00000000      -0.43694321      -0.21867167 </v>
  </varray>
  <varray name="stress" >
   <v>     -31.19019088       0.00000000       0.00000000 </v>
   <v>       0.00000000     -29.02553595      -0.85304602 </v>
   <v>       0.00000000      -0.85304606      -4.88646383 </v>
  </varray>
  <energy>
   <i name="e_fr_energy">   -130.74931343 </i>
   <i name="e_wo_entrp">   -130.77800038 </i>
   <i name="e_0_energy">   -130.75887574 </i>
  </energy>
  <time name="totalsc">   77.74   78.36</time>
 </calculation>
 <calculation>
  <scstep>
   <time name="dav">    7.47    7.53</time>
   <time name="total">    7.94    8.00</time>
   <energy>
    <i name="alphaZ">    844.48149002 </i>
    <i name="ewald"> 173498.01470909 </i>
    <i name="hartreedc">-216257.16893136 </i>
    <i name="XCdc">   1431.88555926 </i>
    <i name="pawpsdc">  41987.91872537 </i>
    <i name="pawaedc"> -45436.53076174 </i>
    <i name="eentropy">      0.03016295 </i>
    <i name="bandstr">   -722.61136840 </i>
    <i name="atom">  44535.60175172 </i>
    <i name="e_fr_energy">   -118.37866309 </i>
    <i name="e_wo_entrp">   -118.40882604 </i>
    <i name="e_0_energy">   -118.38871740 </i>
   </energy>
  </scstep>
  <scstep>
   <time name="dav">    9.85    9.93</time>
   <time name="total">   10.31   10.40</time>
   <energy>
    <i name="e_fr_energy">   -118.38347572 </i>
    <i name="e_wo_entrp">   -118.41333963 </i>
    <i name="e_0_energy">   -118.39343035 </i>
   </energy>
  </scstep>
  <scstep>
   <time name="dav">    8.05    8.11</time>
   <time name="total">    8.50    8.57</time>
   <energy>
    <i name="e_fr_energy">   -118.38356938 </i>
    <i name="e_wo_entrp">   -118.41362766 </i>
    <i name="e_0_energy">   -118.39358881 </i>
   </energy>
  </scstep>
  <scstep>
   <time name="dav">    5.68    5.73</time>
   <time name="total">    5.76    5.81</time>
   <energy>
    <i name="alphaZ">    844.48149002 </i>
    <i name="ewald"> 173498.01470909 </i>
    <i name="hartreedc">-216258.08954892 </i>
    <i name="XCdc">   1431.89406647 </i>
    <i name="pawpsdc">  41988.26925510 </i>
    <i name="pawaedc"> -45436.87257332 </i>
    <i name="eentropy">      0.02992604 </i>
    <i name="bandstr">   -721.71250578 </i>
    <i name="atom">  44535.60175172 </i>
    <i name="e_fr_energy">   -118.38342957 </i>
    <i name="e_wo_entrp">   -118.41335561 </i>
    <i name="e_0_energy">   -118.39340491 </i>
   </energy>
  </scstep>
  <structure>
   <crystal>
    <varray name="basis" >
     <v>       7.26000023       0.00000000       0.00000000 </v>
     <v>       0.00000000       5.13359547       0.00000000 </v>
     <v>       0.00000000       0.00000000      23.98379135 </v>
    </varray>
    <i name="volume">    893.87360752 </i>
    <varray name="rec_basis" >
     <v>       0.13774104       0.00000000       0.00000000 </v>
     <v>       0.00000000       0.19479525       0.00000000 </v>
     <v>       0.00000000       0.00000000       0.04169483 </v>
    </varray>
   </crystal>
   <varray name="positions" >
    <v>       0.00000000       0.00000000       0.00000000 </v>
    <v>       0.00000000       0.50000000       0.00000000 </v>
    <v>       0.50000000       0.00000000       0.00000000 </v>
    <v>       0.50000000       0.50000000       0.00000000 </v>
    <v>       0.25000000       0.25000000       0.05351109 </v>
    <v>       0.25000000       0.75000000       0.05351109 </v>
    <v>       0.75000000       0.25000000       0.05351109 </v>
    <v>       0.75000000       0.75000000       0.05351109 </v>
    <v>       0.00000000       0.00000000       0.10541371 </v>
    <v>       0.00000000       0.50000000       0.10541371 </v>
    <v>       0.50000000       0.00000000       0.10541371 </v>
    <v>       0.50000000       0.50000000       0.10541371 </v>
    <v>       0.25000000       0.24993633       0.15712929 </v>
    <v>       0.25000000       0.75008493       0.15717105 </v>
    <v>       0.75000000       0.25003288       0.15734316 </v>
    <v>       0.75000000       0.74997131       0.15725852 </v>
    <v>       0.00014488       0.00010113       0.20866888 </v>
    <v>      -0.00003463       0.49987671       0.20862798 </v>
    <v>       0.49985512       0.00010113       0.20866888 </v>
    <v>       0.50003463       0.49987671       0.20862798 </v>
    <v>       0.25000000       0.25014116       0.25939046 </v>
    <v>       0.25000000       0.74985263       0.25946332 </v>
    <v>       0.75000000       0.24943199       0.25968408 </v>
    <v>       0.75000000       0.75030328       0.25983167 </v>
    <v>       0.00095490       0.00066499       0.31379756 </v>
    <v>       0.00047463       0.49958011       0.31407991 </v>
    <v>       0.49904510       0.00066499       0.31379756 </v>
    <v>       0.49952537       0.49958011       0.31407991 </v>
    <v>       0.25000000       0.25003379       0.36185922 </v>
    <v>       0.25000000       0.74992503       0.36174162 </v>
    <v>       0.75000000       0.25239992       0.36147286 </v>
    <v>       0.75000000       0.75140732       0.36064835 </v>
    <v>       0.75000000       0.73949737       0.42960923 </v>
    <v>       0.75000000       0.90184435       0.42645122 </v>
   </varray>
  </structure>
  <varray name="forces" >
   <v>       0.02498501      -0.01321482       0.42908227 </v>
   <v>       0.01661774       0.01656715       0.43085052 </v>
   <v>      -0.02498501      -0.01321482       0.42908227 </v>
   <v>      -0.01661774       0.01656715       0.43085052 </v>
   <v>       0.00000000      -0.00891193      -0.47351157 </v>
   <v>       0.00000000       0.01233972      -0.50197005 </v>
   <v>       0.00000000       0.00295466      -0.41444492 </v>
   <v>       0.00000000      -0.00153869      -0.42675681 </v>
   <v>      -0.01421325       0.00316217      -0.02239330 </v>
   <v>      -0.00360411       0.00148411      -0.02634268 </v>
   <v>       0.01421325       0.00316217      -0.02239330 </v>
   <v>       0.00360411       0.00148411      -0.02634268 </v>
   <v>       0.00000000       0.00278335      -0.01363066 </v>
   <v>       0.00000000       0.00147736      -0.00394482 </v>
   <v>       0.00000000      -0.00078252       0.02620803 </v>
   <v>       0.00000000       0.00218979       0.02462587 </v>
   <v>       0.00122733      -0.00061958      -0.01496682 </v>
   <v>      -0.00825822       0.00187490      -0.00528675 </v>
   <v>      -0.00122733      -0.00061958      -0.01496682 </v>
   <v>       0.00825822       0.00187490      -0.00528675 </v>
   <v>       0.00000000       0.01308126      -0.02807595 </v>
   <v>       0.00000000      -0.00841856      -0.01924617 </v>
   <v>       0.00000000      -0.00685933       0.01422420 </v>
   <v>       0.00000000      -0.00071920       0.00504776 </v>
   <v>       0.05267995       0.02738394      -0.05643711 </v>
   <v>       0.03812845       0.00195741      -0.02442956 </v>
   <v>      -0.05267995       0.02738394      -0.05643711 </v>
   <v>      -0.03812845       0.00195741      -0.02442956 </v>
   <v>       0.00000000       0.00222927       0.01358917 </v>
   <v>       0.00000000       0.00129631      -0.01205182 </v>
   <v>       0.00000000       0.08167269      -0.05449582 </v>
   <v>       0.00000000       0.07333964       0.13953474 </v>
   <v>       0.00000000       0.12370823       0.42104094 </v>
   <v>       0.00000000      -0.36703258      -0.11629527 </v>
  </varray>
  <varray name="stress" >
   <v>     -30.42202667       0.00000000       0.00000000 </v>
   <v>       0.00000000     -28.12878948      -0.74329362 </v>
   <v>       0.00000000      -0.74329373      -4.36827721 </v>
  </varray>
  <energy>
   <i name="e_fr_energy">   -130.78015651 </i>
   <i name="e_wo_entrp">   -130.81008255 </i>
   <i name="e_0_energy">   -130.79013185 </i>
  </energy>
  <time name="totalsc">   47.60   48.05</time>
 </calculation>
 <calculation>
  <scstep>
   <time name="dav">    7.49    7.55</time>
   <time name="total">    7.95    8.01</time>
   <energy>
    <i name="alphaZ">    844.48149002 </i>
    <i name="ewald"> 173611.70041196 </i>
    <i name="hartreedc">-216371.85924616 </i>
    <i name="XCdc">   1431.90719467 </i>
    <i name="pawpsdc">  41988.19396610 </i>
    <i name="pawaedc"> -45436.82978877 </i>
    <i name="eentropy">      0.03181338 </i>
    <i name="bandstr">   -721.62062293 </i>
    <i name="atom">  44535.60175172 </i>
    <i name="e_fr_energy">   -118.39303000 </i>
    <i name="e_wo_entrp">   -118.42484338 </i>
    <i name="e_0_energy">   -118.40363446 </i>
   </energy>
  </scstep>
  <scstep>
   <time name="dav">   10.19   10.27</time>
   <time name="total">   10.65   10.74</time>
   <energy>
    <i name="e_fr_energy">   -118.40180962 </i>
    <i name="e_wo_entrp">   -118.43303565 </i>
    <i name="e_0_energy">   -118.41221830 </i>
   </energy>
  </scstep>
  <scstep>
   <time name="dav">    7.92    7.98</time>
   <time name="total">    8.37    8.45</time>
   <energy>
    <i name="e_fr_energy">   -118.40167141 </i>
    <i name="e_wo_entrp">   -118.43329546 </i>
    <i name="e_0_energy">   -118.41221276 </i>
   </energy>
  </scstep>
  <scstep>
   <time name="dav">    7.72    7.79</time>
   <time name="total">    8.19    8.25</time>
   <energy>
    <i name="e_fr_energy">   -118.40136878 </i>
    <i name="e_wo_entrp">   -118.43297584 </i>
    <i name="e_0_energy">   -118.41190446 </i>
   </energy>
  </scstep>
  <scstep>
   <time name="dav">    7.80    7.86</time>
   <time name="total">    7.88    7.94</time>
   <energy>
    <i name="alphaZ">    844.48149002 </i>
    <i name="ewald"> 173611.70041196 </i>
    <i name="hartreedc">-216373.62463253 </i>
    <i name="XCdc">   1431.92405957 </i>
    <i name="pawpsdc">  41989.70659584 </i>
    <i name="pawaedc"> -45438.40194180 </i>
    <i name="eentropy">      0.03116835 </i>
    <i name="bandstr">   -719.82033276 </i>
    <i name="atom">  44535.60175172 </i>
    <i name="e_fr_energy">   -118.40142961 </i>
    <i name="e_wo_entrp">   -118.43259796 </i>
    <i name="e_0_energy">   -118.41181906 </i>
   </energy>
  </scstep>
  <structure>
   <crystal>
    <varray name="basis" >
     <v>       7.26000023       0.00000000       0.00000000 </v>
     <v>       0.00000000       5.13359547       0.00000000 </v>
     <v>       0.00000000       0.00000000      23.98379135 </v>
    </varray>
    <i name="volume">    893.87360752 </i>
    <varray name="rec_basis" >
     <v>       0.13774104       0.00000000       0.00000000 </v>
     <v>       0.00000000       0.19479525       0.00000000 </v>
     <v>       0.00000000       0.00000000       0.04169483 </v>
    </varray>
   </crystal>
   <varray name="positions" >
    <v>       0.00000000       0.00000000       0.00000000 </v>
    <v>       0.00000000       0.50000000       0.00000000 </v>
    <v>       0.50000000       0.00000000       0.00000000 </v>
    <v>       0.50000000       0.50000000       0.00000000 </v>
    <v>       0.25000000       0.25000000       0.05351109 </v>
    <v>       0.25000000       0.75000000       0.05351109 </v>
    <v>       0.75000000       0.25000000       0.05351109 </v>
    <v>       0.75000000       0.75000000       0.05351109 </v>
    <v>       0.00000000       0.00000000       0.10541371 </v>
    <v>       0.00000000       0.50000000       0.10541371 </v>
    <v>       0.50000000       0.00000000       0.10541371 </v>
    <v>       0.50000000       0.50000000       0.10541371 </v>
    <v>       0.25000000       0.24988596       0.15711021 </v>
    <v>       0.25000000       0.75015516       0.15718990 </v>
    <v>       0.75000000       0.25004944       0.15750990 </v>
    <v>       0.75000000       0.74995089       0.15735937 </v>
    <v>       0.00025508       0.00017512       0.20867179 </v>
    <v>      -0.00007861       0.49978184       0.20860306 </v>
    <v>       0.49974492       0.00017512       0.20867179 </v>
    <v>       0.50007861       0.49978184       0.20860306 </v>
    <v>       0.25000000       0.25027621       0.25931457 </v>
    <v>       0.25000000       0.74971391       0.25944815 </v>
    <v>       0.75000000       0.24896032       0.25984650 </v>
    <v>       0.75000000       0.75054533       0.26006456 </v>
    <v>       0.00182123       0.00126730       0.31348393 </v>
    <v>       0.00095729       0.49920588       0.31400055 </v>
    <v>       0.49817877       0.00126730       0.31348393 </v>
    <v>       0.49904271       0.49920588       0.31400055 </v>
    <v>       0.25000000       0.25006415       0.36189643 </v>
    <v>       0.25000000       0.74985942       0.36167609 </v>
    <v>       0.75000000       0.25430044       0.36123898 </v>
    <v>       0.75000000       0.75300499       0.36023890 </v>
    <v>       0.75000000       0.73895130       0.43153613 </v>
    <v>       0.75000000       0.89872254       0.42591673 </v>
   </varray>
  </structure>
  <varray name="forces" >
   <v>       0.02445787      -0.01389960       0.43295576 </v>
   <v>       0.01706939       0.01564888       0.43508637 </v>
   <v>      -0.02445787      -0.01389960       0.43295576 </v>
   <v>      -0.01706939       0.01564888       0.43508637 </v>
   <v>       0.00000000      -0.00838422      -0.47109258 </v>
   <v>       0.00000000       0.01043004      -0.49759285 </v>
   <v>       0.00000000       0.00204419      -0.40273327 </v>
   <v>       0.00000000      -0.00273919      -0.41860531 </v>
   <v>      -0.01762461       0.00283591      -0.01646817 </v>
   <v>      -0.00734272       0.00059585      -0.02150285 </v>
   <v>       0.01762461       0.00283591      -0.01646817 </v>
   <v>       0.00734272       0.00059585      -0.02150285 </v>
   <v>       0.00000000       0.00653179      -0.01607604 </v>
   <v>       0.00000000      -0.00448393      -0.00804564 </v>
   <v>       0.00000000      -0.00527569       0.00689715 </v>
   <v>       0.00000000       0.00316330       0.02421589 </v>
   <v>      -0.00645211      -0.00831249      -0.02911993 </v>
   <v>      -0.01083030       0.00725666       0.00068564 </v>
   <v>       0.00645211      -0.00831249      -0.02911993 </v>
   <v>       0.01083030       0.00725666       0.00068564 </v>
   <v>       0.00000000       0.01669817      -0.03624916 </v>
   <v>       0.00000000      -0.01160777      -0.03837107 </v>
   <v>       0.00000000       0.01649492      -0.02517302 </v>
   <v>       0.00000000      -0.02016778      -0.06036108 </v>
   <v>       0.02520661       0.01233214      -0.02280360 </v>
   <v>       0.02981861       0.02885552      -0.02754740 </v>
   <v>      -0.02520661       0.01233214      -0.02280360 </v>
   <v>      -0.02981861       0.02885552      -0.02754740 </v>
   <v>       0.00000000       0.00229760       0.01843148 </v>
   <v>       0.00000000       0.00269428       0.00019315 </v>
   <v>       0.00000000       0.04533910      -0.04254093 </v>
   <v>       0.00000000       0.02360969       0.31969488 </v>
   <v>       0.00000000       0.13394540       0.13163560 </v>
   <v>       0.00000000      -0.30121563       0.01320117 </v>
  </varray>
  <varray name="stress" >
   <v>     -32.10499570       0.00000000       0.00000000 </v>
   <v>       0.00000000     -29.75380041      -0.55040791 </v>
   <v>       0.00000000      -0.55040802      -6.59852813 </v>
  </varray>
  <energy>
   <i name="e_fr_energy">   -130.80008634 </i>
   <i name="e_wo_entrp">   -130.83125469 </i>
   <i name="e_0_energy">   -130.81047579 </i>
  </energy>
  <time name="totalsc">   58.11   58.60</time>
 </calculation>
 <calculation>
  <scstep>
   <time name="dav">    7.48    7.54</time>
   <time name="total">    7.94    8.00</time>
   <energy>
    <i name="alphaZ">    844.48149002 </i>
    <i name="ewald"> 173660.11285554 </i>
    <i name="hartreedc">-216421.35449023 </i>
    <i name="XCdc">   1431.92437203 </i>
    <i name="pawpsdc">  41989.63726119 </i>
    <i name="pawaedc"> -45438.30734897 </i>
    <i name="eentropy">      0.03238238 </i>
    <i name="bandstr">   -720.52930457 </i>
    <i name="atom">  44535.60175172 </i>
    <i name="e_fr_energy">   -118.40103089 </i>
    <i name="e_wo_entrp">   -118.43341328 </i>
    <i name="e_0_energy">   -118.41182502 </i>
   </energy>
  </scstep>
  <scstep>
   <time name="dav">   10.40   10.48</time>
   <time name="total">   10.85   10.94</time>
   <energy>
    <i name="e_fr_energy">   -118.40291552 </i>
    <i name="e_wo_entrp">   -118.43497587 </i>
    <i name="e_0_energy">   -118.41360230 </i>
   </energy>
  </scstep>
  <scstep>
   <time name="dav">    7.81    7.88</time>
   <time name="total">    8.28    8.35</time>
   <energy>
    <i name="e_fr_energy">   -118.40281746 </i>
    <i name="e_wo_entrp">   -118.43487678 </i>
    <i name="e_0_energy">   -118.41350390 </i>
   </energy>
  </scstep>
  <scstep>
   <time name="dav">    6.67    6.72</time>
   <time name="total">    6.75    6.81</time>
   <energy>
    <i name="alphaZ">    844.48149002 </i>
    <i name="ewald"> 173660.11285554 </i>
    <i name="hartreedc">-216421.96668921 </i>
    <i name="XCdc">   1431.92426675 </i>
    <i name="pawpsdc">  41990.19183957 </i>
    <i name="pawaedc"> -45438.87012841 </i>
    <i name="eentropy">      0.03223011 </i>
    <i name="bandstr">   -719.91042652 </i>
    <i name="atom">  44535.60175172 </i>
    <i name="e_fr_energy">   -118.40281045 </i>
    <i name="e_wo_entrp">   -118.43504055 </i>
    <i name="e_0_energy">   -118.41355381 </i>
   </energy>
  </scstep>
  <structure>
   <crystal>
    <varray name="basis" >
     <v>       7.26000023       0.00000000       0.00000000 </v>
     <v>       0.00000000       5.13359547       0.00000000 </v>
     <v>       0.00000000       0.00000000      23.98379135 </v>
    </varray>
    <i name="volume">    893.87360752 </i>
    <varray name="rec_basis" >
     <v>       0.13774104       0.00000000       0.00000000 </v>
     <v>       0.00000000       0.19479525       0.00000000 </v>
     <v>       0.00000000       0.00000000       0.04169483 </v>
    </varray>
   </crystal>
   <varray name="positions" >
    <v>       0.00000000       0.00000000       0.00000000 </v>
    <v>       0.00000000       0.50000000       0.00000000 </v>
    <v>       0.50000000       0.00000000       0.00000000 </v>
    <v>       0.50000000       0.50000000       0.00000000 </v>
    <v>       0.25000000       0.25000000       0.05351109 </v>
    <v>       0.25000000       0.75000000       0.05351109 </v>
    <v>       0.75000000       0.25000000       0.05351109 </v>
    <v>       0.75000000       0.75000000       0.05351109 </v>
    <v>       0.00000000       0.00000000       0.10541371 </v>
    <v>       0.00000000       0.50000000       0.10541371 </v>
    <v>       0.50000000       0.00000000       0.10541371 </v>
    <v>       0.50000000       0.50000000       0.10541371 </v>
    <v>       0.25000000       0.24986455       0.15710210 </v>
    <v>       0.25000000       0.75018501       0.15719791 </v>
    <v>       0.75000000       0.25005647       0.15758078 </v>
    <v>       0.75000000       0.74994221       0.15740224 </v>
    <v>       0.00030192       0.00020657       0.20867302 </v>
    <v>      -0.00009731       0.49974151       0.20859247 </v>
    <v>       0.49969808       0.00020657       0.20867302 </v>
    <v>       0.50009731       0.49974151       0.20859247 </v>
    <v>       0.25000000       0.25033362       0.25928230 </v>
    <v>       0.25000000       0.74965494       0.25944169 </v>
    <v>       0.75000000       0.24875981       0.25991555 </v>
    <v>       0.75000000       0.75064823       0.26016356 </v>
    <v>       0.00218950       0.00152333       0.31335061 </v>
    <v>       0.00116246       0.49904680       0.31396682 </v>
    <v>       0.49781050       0.00152333       0.31335061 </v>
    <v>       0.49883754       0.49904680       0.31396682 </v>
    <v>       0.25000000       0.25007706       0.36191225 </v>
    <v>       0.25000000       0.74983153       0.36164824 </v>
    <v>       0.75000000       0.25510833       0.36113956 </v>
    <v>       0.75000000       0.75368414       0.36006484 </v>
    <v>       0.75000000       0.73871917       0.43235523 </v>
    <v>       0.75000000       0.89739551       0.42568952 </v>
   </varray>
  </structure>
  <varray name="forces" >
   <v>       0.02400140      -0.01366100       0.43223470 </v>
   <v>       0.01689139       0.01557917       0.43427071 </v>
   <v>      -0.02400140      -0.01366100       0.43223470 </v>
   <v>      -0.01689139       0.01557917       0.43427071 </v>
   <v>       0.00000000      -0.00794015      -0.47558797 </v>
   <v>       0.00000000       0.01035194      -0.50081806 </v>
   <v>       0.00000000       0.00179384      -0.40249388 </v>
   <v>       0.00000000      -0.00256519      -0.41982409 </v>
   <v>      -0.01991941       0.00317360      -0.01929553 </v>
   <v>      -0.00967228       0.00061631      -0.02478842 </v>
   <v>       0.01991941       0.00317360      -0.01929553 </v>
   <v>       0.00967228       0.00061631      -0.02478842 </v>
   <v>       0.00000000       0.00845333      -0.01747404 </v>
   <v>       0.00000000      -0.00629342      -0.00964722 </v>
   <v>       0.00000000      -0.00680753      -0.00129038 </v>
   <v>       0.00000000       0.00393527       0.02418131 </v>
   <v>      -0.01101214      -0.01132768      -0.03119065 </v>
   <v>      -0.01342785       0.01029596       0.00667178 </v>
   <v>       0.01101214      -0.01132768      -0.03119065 </v>
   <v>       0.01342785       0.01029596       0.00667178 </v>
   <v>       0.00000000       0.01813094      -0.03323176 </v>
   <v>       0.00000000      -0.01190987      -0.03939837 </v>
   <v>       0.00000000       0.02646246      -0.03602922 </v>
   <v>       0.00000000      -0.02797621      -0.08640144 </v>
   <v>       0.00736095       0.00441595       0.00002996 </v>
   <v>       0.02360103       0.04045336      -0.02430038 </v>
   <v>      -0.00736095       0.00441595       0.00002996 </v>
   <v>      -0.02360103       0.04045336      -0.02430038 </v>
   <v>       0.00000000       0.00099754       0.02076001 </v>
   <v>       0.00000000       0.00509152       0.00287832 </v>
   <v>       0.00000000       0.02747604      -0.04303944 </v>
   <v>       0.00000000      -0.00306537       0.38274130 </v>
[...]
       <r>    10.5446    -0.0005   232.0000 </r>
       <r>    10.6182    -0.0001   232.0000 </r>
       <r>    10.6918    -0.0000   232.0000 </r>
       <r>    10.7654    -0.0000   232.0000 </r>
       <r>    10.8390    -0.0000   232.0000 </r>
       <r>    10.9127    -0.0000   232.0000 </r>
       <r>    10.9863    -0.0000   232.0000 </r>
       <r>    11.0599    -0.0000   232.0000 </r>
       <r>    11.1335    -0.0000   232.0000 </r>
       <r>    11.2072     0.0000   232.0000 </r>
       <r>    11.2808     0.0000   232.0000 </r>
       <r>    11.3544     0.0000   232.0000 </r>
       <r>    11.4280     0.0000   232.0000 </r>
       <r>    11.5016     0.0000   232.0000 </r>
       <r>    11.5753     0.0000   232.0000 </r>
       <r>    11.6489     0.0000   232.0000 </r>
       <r>    11.7225     0.0000   232.0000 </r>
       <r>    11.7961     0.0000   232.0000 </r>
       <r>    11.8697     0.0000   232.0000 </r>
      </set>
      <set comment="spin 2">
       <r>   -10.2168     0.0000     0.0000 </r>
       <r>   -10.1432     0.0000     0.0000 </r>
       <r>   -10.0696     0.0000     0.0000 </r>
       <r>    -9.9959     0.0000     0.0000 </r>
       <r>    -9.9223     0.0000     0.0000 </r>
       <r>    -9.8487    -0.0000    -0.0000 </r>
       <r>    -9.7751    -0.0000    -0.0000 </r>
       <r>    -9.7014    -0.0000    -0.0000 </r>
       <r>    -9.6278    -0.0000    -0.0000 </r>
       <r>    -9.5542    -0.0000    -0.0000 </r>
       <r>    -9.4806    -0.0000    -0.0000 </r>
       <r>    -9.4070    -0.0000    -0.0000 </r>
       <r>    -9.3333    -0.0000    -0.0000 </r>
       <r>    -9.2597    -0.0000    -0.0000 </r>
       <r>    -9.1861    -0.0000    -0.0000 </r>
       <r>    -9.1125    -0.0000    -0.0000 </r>
       <r>    -9.0389    -0.0000    -0.0000 </r>
       <r>    -8.9652    -0.0000    -0.0000 </r>
       <r>    -8.8916    -0.0000    -0.0000 </r>
       <r>    -8.8180    -0.0001    -0.0000 </r>
       <r>    -8.7444    -0.0008    -0.0001 </r>
       <r>    -8.6707    -0.0037    -0.0003 </r>
       <r>    -8.5971    -0.0119    -0.0012 </r>
       <r>    -8.5235    -0.0242    -0.0030 </r>
       <r>    -8.4499    -0.0193    -0.0044 </r>
       <r>    -8.3763     0.0451    -0.0011 </r>
       <r>    -8.3026     0.1776     0.0120 </r>
       <r>    -8.2290     0.3023     0.0342 </r>
       <r>    -8.1554     0.3678     0.0613 </r>
       <r>    -8.0818     0.5539     0.1021 </r>
       <r>    -8.0081     1.2226     0.1921 </r>
       <r>    -7.9345     2.4796     0.3746 </r>
       <r>    -7.8609     3.7665     0.6519 </r>
       <r>    -7.7873     4.1406     0.9568 </r>
       <r>    -7.7137     3.2504     1.1961 </r>
       <r>    -7.6400     1.8333     1.3311 </r>
       <r>    -7.5664     0.8925     1.3968 </r>
       <r>    -7.4928     0.6419     1.4440 </r>
       <r>    -7.4192     0.6558     1.4923 </r>
       <r>    -7.3456     0.7602     1.5483 </r>
       <r>    -7.2719     1.1717     1.6345 </r>
       <r>    -7.1983     1.7931     1.7665 </r>
       <r>    -7.1247     2.0609     1.9183 </r>
       <r>    -7.0511     1.7524     2.0473 </r>
       <r>    -6.9774     1.3709     2.1482 </r>
       <r>    -6.9038     1.3875     2.2504 </r>
       <r>    -6.8302     1.5674     2.3657 </r>
       <r>    -6.7566     1.4151     2.4699 </r>
       <r>    -6.6830     0.9430     2.5394 </r>
       <r>    -6.6093     0.5953     2.5832 </r>
       <r>    -6.5357     0.6236     2.6291 </r>
       <r>    -6.4621     0.9911     2.7021 </r>
       <r>    -6.3885     1.7278     2.8293 </r>
       <r>    -6.3148     2.7489     3.0316 </r>
       <r>    -6.2412     3.4189     3.2834 </r>
       <r>    -6.1676     3.0874     3.5107 </r>
       <r>    -6.0940     2.0305     3.6601 </r>
       <r>    -6.0204     1.1342     3.7436 </r>
       <r>    -5.9467     0.8012     3.8026 </r>
       <r>    -5.8731     0.8045     3.8619 </r>
       <r>    -5.7995     0.9143     3.9292 </r>
       <r>    -5.7259     1.1275     4.0122 </r>
       <r>    -5.6522     1.6209     4.1315 </r>
       <r>    -5.5786     2.6915     4.3297 </r>
       <r>    -5.5050     4.1800     4.6374 </r>
       <r>    -5.4314     5.0453     5.0088 </r>
       <r>    -5.3578     4.3606     5.3299 </r>
       <r>    -5.2841     2.5938     5.5208 </r>
       <r>    -5.2105     1.1640     5.6065 </r>
       <r>    -5.1369     1.0783     5.6859 </r>
       <r>    -5.0633     2.4854     5.8689 </r>
       <r>    -4.9897     4.8055     6.2227 </r>
       <r>    -4.9160     6.7977     6.7232 </r>
       <r>    -4.8424     7.2920     7.2600 </r>
       <r>    -4.7688     6.1665     7.7140 </r>
       <r>    -4.6952     4.1472     8.0193 </r>
       <r>    -4.6215     2.0142     8.1676 </r>
       <r>    -4.5479     0.4699     8.2022 </r>
       <r>    -4.4743     0.2267     8.2189 </r>
       <r>    -4.4007     1.6863     8.3430 </r>
       <r>    -4.3271     4.5131     8.6753 </r>
       <r>    -4.2534     7.5522     9.2313 </r>
       <r>    -4.1798     9.4273     9.9254 </r>
       <r>    -4.1062     9.6928    10.6390 </r>
       <r>    -4.0326     9.4442    11.3343 </r>
       <r>    -3.9589    10.3334    12.0950 </r>
       <r>    -3.8853    12.7488    13.0336 </r>
       <r>    -3.8117    15.3455    14.1634 </r>
       <r>    -3.7381    16.8379    15.4030 </r>
       <r>    -3.6645    17.6864    16.7051 </r>
       <r>    -3.5908    18.9302    18.0988 </r>
       <r>    -3.5172    20.2568    19.5901 </r>
       <r>    -3.4436    21.0821    21.1423 </r>
       <r>    -3.3700    22.6311    22.8084 </r>
       <r>    -3.2963    26.5639    24.7641 </r>
       <r>    -3.2227    31.7530    27.1018 </r>
       <r>    -3.1491    34.8102    29.6646 </r>
       <r>    -3.0755    34.3083    32.1904 </r>
       <r>    -3.0019    32.2145    34.5621 </r>
       <r>    -2.9282    30.5772    36.8133 </r>
       <r>    -2.8546    29.4689    38.9828 </r>
       <r>    -2.7810    29.0366    41.1205 </r>
       <r>    -2.7074    30.7546    43.3848 </r>
       <r>    -2.6338    35.2041    45.9765 </r>
       <r>    -2.5601    40.4998    48.9582 </r>
       <r>    -2.4865    44.1611    52.2094 </r>
       <r>    -2.4129    45.5467    55.5627 </r>
       <r>    -2.3393    45.9627    58.9465 </r>
       <r>    -2.2656    47.2933    62.4283 </r>
       <r>    -2.1920    50.7326    66.1634 </r>
       <r>    -2.1184    56.0450    70.2895 </r>
       <r>    -2.0448    61.5371    74.8200 </r>
       <r>    -1.9712    64.7295    79.5855 </r>
       <r>    -1.8975    63.8622    84.2871 </r>
       <r>    -1.8239    59.4780    88.6660 </r>
       <r>    -1.7503    53.9458    92.6376 </r>
       <r>    -1.6767    49.3013    96.2673 </r>
       <r>    -1.6030    46.4416    99.6864 </r>
       <r>    -1.5294    46.0230   103.0747 </r>
       <r>    -1.4558    48.4831   106.6441 </r>
       <r>    -1.3822    52.7429   110.5271 </r>
       <r>    -1.3086    56.4856   114.6857 </r>
       <r>    -1.2349    58.6968   119.0071 </r>
       <r>    -1.1613    60.4234   123.4555 </r>
       <r>    -1.0877    62.3336   128.0446 </r>
       <r>    -1.0141    63.8111   132.7425 </r>
       <r>    -0.9405    65.5214   137.5663 </r>
       <r>    -0.8668    70.0769   142.7255 </r>
       <r>    -0.7932    77.7787   148.4517 </r>
       <r>    -0.7196    83.2005   154.5771 </r>
       <r>    -0.6460    78.6922   160.3706 </r>
       <r>    -0.5723    61.9941   164.9347 </r>
       <r>    -0.4987    39.3517   167.8318 </r>
       <r>    -0.4251    20.2775   169.3247 </r>
       <r>    -0.3515     9.8802   170.0521 </r>
       <r>    -0.2779     6.7822   170.5514 </r>
       <r>    -0.2042     6.8267   171.0540 </r>
       <r>    -0.1306     6.8763   171.5603 </r>
       <r>    -0.0570     5.6924   171.9793 </r>
       <r>     0.0166     3.4416   172.2327 </r>
       <r>     0.0903     1.2527   172.3250 </r>
       <r>     0.1639     0.4422   172.3575 </r>
       <r>     0.2375     1.4974   172.4677 </r>
       <r>     0.3111     3.6985   172.7400 </r>
       <r>     0.3847     5.7595   173.1641 </r>
       <r>     0.4584     6.9873   173.6785 </r>
       <r>     0.5320     7.7850   174.2516 </r>
       <r>     0.6056     8.8039   174.8998 </r>
       <r>     0.6792     9.7137   175.6149 </r>
       <r>     0.7529     9.3447   176.3029 </r>
       <r>     0.8265     7.2589   176.8373 </r>
       <r>     0.9001     4.6232   177.1777 </r>
       <r>     0.9737     3.1734   177.4113 </r>
       <r>     1.0473     3.5903   177.6756 </r>
       <r>     1.1210     5.0180   178.0451 </r>
       <r>     1.1946     6.0611   178.4913 </r>
       <r>     1.2682     6.0197   178.9345 </r>
       <r>     1.3418     5.0199   179.3041 </r>
       <r>     1.4154     3.6347   179.5717 </r>
       <r>     1.4891     2.8681   179.7828 </r>
       <r>     1.5627     3.5320   180.0428 </r>
       <r>     1.6363     4.9907   180.4103 </r>
       <r>     1.7099     5.5846   180.8214 </r>
       <r>     1.7836     4.8339   181.1773 </r>
       <r>     1.8572     4.0461   181.4752 </r>
       <r>     1.9308     4.3743   181.7972 </r>
       <r>     2.0044     5.5147   182.2032 </r>
       <r>     2.0780     6.5124   182.6827 </r>
       <r>     2.1517     6.7622   183.1805 </r>
       <r>     2.2253     6.1850   183.6359 </r>
       <r>     2.2989     5.2264   184.0207 </r>
       <r>     2.3725     4.6924   184.3661 </r>
       <r>     2.4462     5.0552   184.7383 </r>
       <r>     2.5198     5.8370   185.1680 </r>
       <r>     2.5934     5.9862   185.6087 </r>
       <r>     2.6670     5.0086   185.9775 </r>
       <r>     2.7406     3.5522   186.2390 </r>
       <r>     2.8143     2.6334   186.4329 </r>
       <r>     2.8879     2.5402   186.6199 </r>
       <r>     2.9615     3.0113   186.8416 </r>
       <r>     3.0351     4.0051   187.1364 </r>
       <r>     3.1088     5.3274   187.5287 </r>
       <r>     3.1824     6.0315   187.9727 </r>
       <r>     3.2560     5.4299   188.3725 </r>
       <r>     3.3296     4.2983   188.6889 </r>
       <r>     3.4032     3.9710   188.9813 </r>
       <r>     3.4769     4.6339   189.3224 </r>
       <r>     3.5505     5.2651   189.7100 </r>
       <r>     3.6241     4.9313   190.0731 </r>
       <r>     3.6977     3.7909   190.3522 </r>
       <r>     3.7713     2.8983   190.5656 </r>
       <r>     3.8450     3.0223   190.7881 </r>
       <r>     3.9186     3.9236   191.0769 </r>
       <r>     3.9922     4.9572   191.4419 </r>
       <r>     4.0658     5.7552   191.8656 </r>
       <r>     4.1395     6.0330   192.3098 </r>
       <r>     4.2131     5.5859   192.7210 </r>
       <r>     4.2867     4.8489   193.0780 </r>
       <r>     4.3603     4.5479   193.4128 </r>
       <r>     4.4339     4.6062   193.7519 </r>
       <r>     4.5076     4.3245   194.0703 </r>
       <r>     4.5812     3.6051   194.3357 </r>
       <r>     4.6548     3.1788   194.5697 </r>
       <r>     4.7284     3.6801   194.8407 </r>
       <r>     4.8021     4.9047   195.2018 </r>
       <r>     4.8757     5.9551   195.6402 </r>
       <r>     4.9493     6.1077   196.0899 </r>
       <r>     5.0229     5.4020   196.4876 </r>
       <r>     5.0965     4.2766   196.8024 </r>
       <r>     5.1702     3.1669   197.0356 </r>
       <r>     5.2438     2.6731   197.2324 </r>
       <r>     5.3174     3.4005   197.4827 </r>
       <r>     5.3910     5.2301   197.8678 </r>
       <r>     5.4646     7.1547   198.3945 </r>
       <r>     5.5383     8.1856   198.9971 </r>
       <r>     5.6119     8.2800   199.6067 </r>
       <r>     5.6855     8.1286   200.2052 </r>
       <r>     5.7591     8.1391   200.8044 </r>
       <r>     5.8328     8.0597   201.3978 </r>
       <r>     5.9064     7.6813   201.9633 </r>
       <r>     5.9800     7.2923   202.5001 </r>
       <r>     6.0536     7.1763   203.0285 </r>
       <r>     6.1272     7.2783   203.5643 </r>
       <r>     6.2009     7.4681   204.1141 </r>
       <r>     6.2745     7.5702   204.6715 </r>
       <r>     6.3481     7.3422   205.2120 </r>
       <r>     6.4217     6.8661   205.7175 </r>
       <r>     6.4954     6.6122   206.2043 </r>
       <r>     6.5690     6.7918   206.7043 </r>
       <r>     6.6426     7.0331   207.2221 </r>
       <r>     6.7162     6.9754   207.7356 </r>
       <r>     6.7898     6.7610   208.2334 </r>
       <r>     6.8635     6.8065   208.7345 </r>
       <r>     6.9371     7.3595   209.2763 </r>
       <r>     7.0107     8.0708   209.8705 </r>
       <r>     7.0843     8.1916   210.4736 </r>
       <r>     7.1580     7.7213   211.0421 </r>
       <r>     7.2316     7.6159   211.6028 </r>
       <r>     7.3052     8.2575   212.2107 </r>
       <r>     7.3788     8.7847   212.8574 </r>
       <r>     7.4524     8.4029   213.4761 </r>
       <r>     7.5261     7.3535   214.0174 </r>
       <r>     7.5997     6.4246   214.4904 </r>
       <r>     7.6733     6.2730   214.9523 </r>
       <r>     7.7469     7.1275   215.4770 </r>
       <r>     7.8205     8.6132   216.1111 </r>
       <r>     7.8942     9.9786   216.8458 </r>
       <r>     7.9678    10.6631   217.6308 </r>
       <r>     8.0414    10.4660   218.4013 </r>
       <r>     8.1150     9.4446   219.0967 </r>
       <r>     8.1887     8.1683   219.6980 </r>
       <r>     8.2623     7.5470   220.2536 </r>
       <r>     8.3359     7.7181   220.8219 </r>
       <r>     8.4095     7.7912   221.3955 </r>
       <r>     8.4831     7.2073   221.9261 </r>
       <r>     8.5568     6.5996   222.4120 </r>
       <r>     8.6304     6.9510   222.9237 </r>
       <r>     8.7040     8.3018   223.5349 </r>
       <r>     8.7776     9.5674   224.2393 </r>
       <r>     8.8513     9.7916   224.9601 </r>
       <r>     8.9249     9.2564   225.6416 </r>
       <r>     8.9985     8.7681   226.2871 </r>
       <r>     9.0721     8.3791   226.9040 </r>
       <r>     9.1457     7.7133   227.4719 </r>
       <r>     9.2194     6.9510   227.9836 </r>
       <r>     9.2930     6.5405   228.4652 </r>
       <r>     9.3666     6.4762   228.9420 </r>
       <r>     9.4402     6.4937   229.4200 </r>
       <r>     9.5138     6.5242   229.9004 </r>
       <r>     9.5875     6.6157   230.3874 </r>
       <r>     9.6611     6.5394   230.8689 </r>
       <r>     9.7347     5.8351   231.2984 </r>
       <r>     9.8083     4.4667   231.6273 </r>
       <r>     9.8820     2.9403   231.8438 </r>
       <r>     9.9556     1.6496   231.9652 </r>
       <r>    10.0292     0.6812   232.0154 </r>
       <r>    10.1028     0.0908   232.0220 </r>
       <r>    10.1764    -0.1209   232.0131 </r>
       <r>    10.2501    -0.1095   232.0051 </r>
       <r>    10.3237    -0.0502   232.0014 </r>
       <r>    10.3973    -0.0151   232.0003 </r>
       <r>    10.4709    -0.0032   232.0000 </r>
       <r>    10.5446    -0.0005   232.0000 </r>
       <r>    10.6182    -0.0001   232.0000 </r>
       <r>    10.6918    -0.0000   232.0000 </r>
       <r>    10.7654    -0.0000   232.0000 </r>
       <r>    10.8390    -0.0000   232.0000 </r>
       <r>    10.9127    -0.0000   232.0000 </r>
       <r>    10.9863    -0.0000   232.0000 </r>
       <r>    11.0599    -0.0000   232.0000 </r>
       <r>    11.1335    -0.0000   232.0000 </r>
       <r>    11.2072     0.0000   232.0000 </r>
       <r>    11.2808     0.0000   232.0000 </r>
       <r>    11.3544     0.0000   232.0000 </r>
       <r>    11.4280     0.0000   232.0000 </r>
       <r>    11.5016     0.0000   232.0000 </r>
       <r>    11.5753     0.0000   232.0000 </r>
       <r>    11.6489     0.0000   232.0000 </r>
       <r>    11.7225     0.0000   232.0000 </r>
       <r>    11.7961     0.0000   232.0000 </r>
       <r>    11.8697     0.0000   232.0000 </r>
      </set>
     </set>
    </array>
   </total>
  </dos>
 </calculation>
 <structure name="finalpos" >
  <crystal>
   <varray name="basis" >
    <v>       7.26000023       0.00000000       0.00000000 </v>
    <v>       0.00000000       5.13359547       0.00000000 </v>
    <v>       0.00000000       0.00000000      23.98379135 </v>
   </varray>
   <i name="volume">    893.87360752 </i>
   <varray name="rec_basis" >
    <v>       0.13774104       0.00000000       0.00000000 </v>
    <v>       0.00000000       0.19479525       0.00000000 </v>
    <v>       0.00000000       0.00000000       0.04169483 </v>
   </varray>
  </crystal>
  <varray name="positions" >
   <v>       0.00000000       0.00000000       0.00000000 </v>
   <v>       0.00000000       0.50000000       0.00000000 </v>
   <v>       0.50000000       0.00000000       0.00000000 </v>
   <v>       0.50000000       0.50000000       0.00000000 </v>
   <v>       0.25000000       0.25000000       0.05351109 </v>
   <v>       0.25000000       0.75000000       0.05351109 </v>
   <v>       0.75000000       0.25000000       0.05351109 </v>
   <v>       0.75000000       0.75000000       0.05351109 </v>
   <v>       0.00000000       0.00000000       0.10541371 </v>
   <v>       0.00000000       0.50000000       0.10541371 </v>
   <v>       0.50000000       0.00000000       0.10541371 </v>
   <v>       0.50000000       0.50000000       0.10541371 </v>
   <v>       0.25000000       0.25126350       0.15711948 </v>
   <v>       0.25000000       0.75109065       0.15710525 </v>
   <v>       0.75000000       0.25126826       0.15749037 </v>
   <v>       0.75000000       0.75126639       0.15800886 </v>
   <v>      -0.00021551       0.00214121       0.20876293 </v>
   <v>      -0.00022450       0.50253796       0.20879584 </v>
   <v>       0.50021551       0.00214121       0.20876293 </v>
   <v>       0.50022450       0.50253796       0.20879584 </v>
   <v>       0.25000000       0.25318283       0.25939987 </v>
   <v>       0.25000000       0.75286010       0.25952427 </v>
   <v>       0.75000000       0.25260939       0.25959259 </v>
   <v>       0.75000000       0.75313914       0.26159056 </v>
   <v>       0.00126967       0.00417654       0.31404173 </v>
   <v>       0.00099006       0.50401792       0.31422523 </v>
   <v>       0.49873033       0.00417654       0.31404173 </v>
   <v>       0.49900994       0.50401792       0.31422523 </v>
   <v>       0.25000000       0.25491179       0.36210749 </v>
   <v>       0.25000000       0.75452971       0.36198540 </v>
   <v>       0.75000000       0.25585555       0.36089811 </v>
   <v>       0.75000000       0.75551186       0.36399388 </v>
   <v>       0.75000000       0.69197379       0.43618131 </v>
   <v>       0.75000000       0.84942952       0.43427364 </v>
  </varray>
  <varray name="selective"  type="logical" >
   <v type="logical" >  F  F  F </v>
   <v type="logical" >  F  F  F </v>
   <v type="logical" >  F  F  F </v>
   <v type="logical" >  F  F  F </v>
   <v type="logical" >  F  F  F </v>
   <v type="logical" >  F  F  F </v>
   <v type="logical" >  F  F  F </v>
   <v type="logical" >  F  F  F </v>
   <v type="logical" >  F  F  F </v>
   <v type="logical" >  F  F  F </v>
   <v type="logical" >  F  F  F </v>
   <v type="logical" >  F  F  F </v>
   <v type="logical" >  T  T  T </v>
   <v type="logical" >  T  T  T </v>
   <v type="logical" >  T  T  T </v>
   <v type="logical" >  T  T  T </v>
   <v type="logical" >  T  T  T </v>
   <v type="logical" >  T  T  T </v>
   <v type="logical" >  T  T  T </v>
   <v type="logical" >  T  T  T </v>
   <v type="logical" >  T  T  T </v>
   <v type="logical" >  T  T  T </v>
   <v type="logical" >  T  T  T </v>
   <v type="logical" >  T  T  T </v>
   <v type="logical" >  T  T  T </v>
   <v type="logical" >  T  T  T </v>
   <v type="logical" >  T  T  T </v>
   <v type="logical" >  T  T  T </v>
   <v type="logical" >  T  T  T </v>
   <v type="logical" >  T  T  T </v>
   <v type="logical" >  T  T  T </v>
   <v type="logical" >  T  T  T </v>
   <v type="logical" >  T  T  T </v>
   <v type="logical" >  T  T  T </v>
  </varray>
  <nose>
   <v>      -3.00000000       0.00000000       0.00010000       0.00010000 </v>
  </nose>
 </structure>
</modeling>
