unknown system                          
           1
     7.260000    0.000000    0.000000
     0.000000    5.133595    0.000000
     0.000000    0.000000   23.983791
   Cu   H 
    32     2
Direct configuration=     1
   0.00000000  0.00000000  0.00000000
   0.00000000  0.50000000  0.00000000
   0.50000000  0.00000000  0.00000000
   0.50000000  0.50000000  0.00000000
   0.25000000  0.25000000  0.05351109
   0.25000000  0.75000000  0.05351109
   0.75000000  0.25000000  0.05351109
   0.75000000  0.75000000  0.05351109
   0.00000000  0.00000000  0.10541371
   0.00000000  0.50000000  0.10541371
   0.50000000  0.00000000  0.10541371
   0.50000000  0.50000000  0.10541371
   0.25000000  0.25000000  0.15715010
   0.25000000  0.75000000  0.15715010
   0.75000000  0.25000000  0.15715010
   0.75000000  0.75000000  0.15715010
   0.00000000  0.00000000  0.20866257
   0.00000000  0.50000000  0.20866257
   0.50000000  0.00000000  0.20866257
   0.50000000  0.50000000  0.20866257
   0.25000000  0.25000000  0.25947965
   0.25000000  0.75000000  0.25947965
   0.75000000  0.25000000  0.25947965
   0.75000000  0.75000000  0.25947965
   0.00000000  0.00000000  0.31415415
   0.00000000  0.50000000  0.31415415
   0.50000000  0.00000000  0.31415415
   0.50000000  0.50000000  0.31415415
   0.25000000  0.25000000  0.36181799
   0.25000000  0.75000000  0.36181799
   0.75000000  0.25000000  0.36181799
   0.75000000  0.75000000  0.36181799
   0.75000000  0.75000000  0.42690792
   0.75000000  0.89531725  0.42690792
Direct configuration=     2
   0.00000000  0.00000000  0.00000000
   0.00000000  0.50000000  0.00000000
   0.50000000  0.00000000  0.00000000
   0.50000000  0.50000000  0.00000000
   0.25000000  0.25000000  0.05351109
   0.25000000  0.75000000  0.05351109
   0.75000000  0.25000000  0.05351109
   0.75000000  0.75000000  0.05351109
   0.00000000  0.00000000  0.10541371
   0.00000000  0.50000000  0.10541371
   0.50000000  0.00000000  0.10541371
   0.50000000  0.50000000  0.10541371
   0.25000000  0.24994837  0.15713719
   0.25000000  0.75006426  0.15716362
   0.75000000  0.25004105  0.15728535
   0.75000000  0.74997327  0.15721510
   0.00012419  0.00009115  0.20867085
  -0.00000285  0.49989598  0.20863081
   0.49987581  0.00009115  0.20867085
   0.50000285  0.49989598  0.20863081
   0.25000000  0.25007892  0.25941544
   0.25000000  0.74991416  0.25946984
   0.75000000  0.24957332  0.25964436
   0.75000000  0.75024273  0.25983445
   0.00060574  0.00042336  0.31391292
   0.00022192  0.49972344  0.31412531
   0.49939426  0.00042336  0.31391292
   0.49977808  0.49972344  0.31412531
   0.25000000  0.25002187  0.36184444
   0.25000000  0.74994879  0.36176384
   0.75000000  0.25194328  0.36147856
   0.75000000  0.75040484  0.36008513
   0.75000000  0.72967979  0.42941806
   0.75000000  0.91320843  0.42680089
Direct configuration=     3
   0.00000000  0.00000000  0.00000000
   0.00000000  0.50000000  0.00000000
   0.50000000  0.00000000  0.00000000
   0.50000000  0.50000000  0.00000000
   0.25000000  0.25000000  0.05351109
   0.25000000  0.75000000  0.05351109
   0.75000000  0.25000000  0.05351109
   0.75000000  0.75000000  0.05351109
   0.00000000  0.00000000  0.10541371
   0.00000000  0.50000000  0.10541371
   0.50000000  0.00000000  0.10541371
   0.50000000  0.50000000  0.10541371
   0.25000000  0.24997436  0.15714369
   0.25000000  0.75003191  0.15715681
   0.75000000  0.25002039  0.15721726
   0.75000000  0.74998673  0.15718238
   0.00006167  0.00004526  0.20866668
  -0.00000142  0.49994835  0.20864680
   0.49993833  0.00004526  0.20866668
   0.50000142  0.49994835  0.20864680
   0.25000000  0.25003919  0.25944777
   0.25000000  0.74995737  0.25947478
   0.75000000  0.24978813  0.25956144
   0.75000000  0.75012053  0.25965583
   0.00030079  0.00021023  0.31403437
   0.00011020  0.49986267  0.31413983
   0.49969921  0.00021023  0.31403437
   0.49988980  0.49986267  0.31413983
   0.25000000  0.25001086  0.36183112
   0.25000000  0.74997457  0.36179110
   0.75000000  0.25096496  0.36164944
   0.75000000  0.75020103  0.36095751
   0.75000000  0.73990968  0.42815437
   0.75000000  0.90420140  0.42685477
Direct configuration=     4
   0.00000000  0.00000000  0.00000000
   0.00000000  0.50000000  0.00000000
   0.50000000  0.00000000  0.00000000
   0.50000000  0.50000000  0.00000000
   0.25000000  0.25000000  0.05351109
   0.25000000  0.75000000  0.05351109
   0.75000000  0.25000000  0.05351109
   0.75000000  0.75000000  0.05351109
   0.00000000  0.00000000  0.10541371
   0.00000000  0.50000000  0.10541371
   0.50000000  0.00000000  0.10541371
   0.50000000  0.50000000  0.10541371
   0.25000000  0.24993633  0.15712929
   0.25000000  0.75008493  0.15717105
   0.75000000  0.25003288  0.15734316
   0.75000000  0.74997131  0.15725852
   0.00014488  0.00010113  0.20866888
  -0.00003463  0.49987671  0.20862798
   0.49985512  0.00010113  0.20866888
   0.50003463  0.49987671  0.20862798
   0.25000000  0.25014116  0.25939046
   0.25000000  0.74985263  0.25946332
   0.75000000  0.24943199  0.25968408
   0.75000000  0.75030328  0.25983167
   0.00095490  0.00066499  0.31379756
   0.00047463  0.49958011  0.31407991
   0.49904510  0.00066499  0.31379756
   0.49952537  0.49958011  0.31407991
   0.25000000  0.25003379  0.36185922
   0.25000000  0.74992503  0.36174162
   0.75000000  0.25239992  0.36147286
   0.75000000  0.75140732  0.36064835
   0.75000000  0.73949737  0.42960923
   0.75000000  0.90184435  0.42645122
Direct configuration=     5
   0.00000000  0.00000000  0.00000000
   0.00000000  0.50000000  0.00000000
   0.50000000  0.00000000  0.00000000
   0.50000000  0.50000000  0.00000000
   0.25000000  0.25000000  0.05351109
   0.25000000  0.75000000  0.05351109
   0.75000000  0.25000000  0.05351109
   0.75000000  0.75000000  0.05351109
   0.00000000  0.00000000  0.10541371
   0.00000000  0.50000000  0.10541371
   0.50000000  0.00000000  0.10541371
   0.50000000  0.50000000  0.10541371
   0.25000000  0.24988596  0.15711021
   0.25000000  0.75015516  0.15718990
   0.75000000  0.25004944  0.15750990
   0.75000000  0.74995089  0.15735937
   0.00025508  0.00017512  0.20867179
  -0.00007861  0.49978184  0.20860306
   0.49974492  0.00017512  0.20867179
   0.50007861  0.49978184  0.20860306
   0.25000000  0.25027621  0.25931457
   0.25000000  0.74971391  0.25944815
   0.75000000  0.24896032  0.25984650
   0.75000000  0.75054533  0.26006456
   0.00182123  0.00126730  0.31348393
   0.00095729  0.49920588  0.31400055
   0.49817877  0.00126730  0.31348393
   0.49904271  0.49920588  0.31400055
   0.25000000  0.25006415  0.36189643
   0.25000000  0.74985942  0.36167609
   0.75000000  0.25430044  0.36123898
   0.75000000  0.75300499  0.36023890
   0.75000000  0.73895130  0.43153613
   0.75000000  0.89872254  0.42591673
Direct configuration=     6
   0.00000000  0.00000000  0.00000000
   0.00000000  0.50000000  0.00000000
   0.50000000  0.00000000  0.00000000
   0.50000000  0.50000000  0.00000000
   0.25000000  0.25000000  0.05351109
   0.25000000  0.75000000  0.05351109
   0.75000000  0.25000000  0.05351109
   0.75000000  0.75000000  0.05351109
   0.00000000  0.00000000  0.10541371
   0.00000000  0.50000000  0.10541371
   0.50000000  0.00000000  0.10541371
   0.50000000  0.50000000  0.10541371
   0.25000000  0.24986455  0.15710210
   0.25000000  0.75018501  0.15719791
   0.75000000  0.25005647  0.15758078
   0.75000000  0.74994221  0.15740224
   0.00030192  0.00020657  0.20867302
  -0.00009731  0.49974151  0.20859247
   0.49969808  0.00020657  0.20867302
   0.50009731  0.49974151  0.20859247
   0.25000000  0.25033362  0.25928230
   0.25000000  0.74965494  0.25944169
   0.75000000  0.24875981  0.25991555
   0.75000000  0.75064823  0.26016356
   0.00218950  0.00152333  0.31335061
   0.00116246  0.49904680  0.31396682
   0.49781050  0.00152333  0.31335061
   0.49883754  0.49904680  0.31396682
   0.25000000  0.25007706  0.36191225
   0.25000000  0.74983153  0.36164824
   0.75000000  0.25510833  0.36113956
   0.75000000  0.75368414  0.36006484
   0.75000000  0.73871917  0.43235523
   0.75000000  0.89739551  0.42568952
Direct configuration=     7
   0.00000000  0.00000000  0.00000000
   0.00000000  0.50000000  0.00000000
   0.50000000  0.00000000  0.00000000
   0.50000000  0.50000000  0.00000000
   0.25000000  0.25000000  0.05351109
   0.25000000  0.75000000  0.05351109
   0.75000000  0.25000000  0.05351109
   0.75000000  0.75000000  0.05351109
   0.00000000  0.00000000  0.10541371
   0.00000000  0.50000000  0.10541371
   0.50000000  0.00000000  0.10541371
   0.50000000  0.50000000  0.10541371
   0.25000000  0.24995279  0.15705471
   0.25000000  0.75012593  0.15717768
   0.75000000  0.24998056  0.15761123
   0.75000000  0.74998389  0.15748285
   0.00023352  0.00008964  0.20859589
  -0.00021673  0.49984221  0.20860407
   0.49976648  0.00008964  0.20859589
   0.50021673  0.49984221  0.20860407
   0.25000000  0.25057196  0.25918417
   0.25000000  0.74948828  0.25934046
   0.75000000  0.24897264  0.25985857
   0.75000000  0.75037141  0.25999529
   0.00242501  0.00169635  0.31328736
   0.00145419  0.49944218  0.31389025
   0.49757499  0.00169635  0.31328736
   0.49854581  0.49944218  0.31389025
   0.25000000  0.25009480  0.36197149
   0.25000000  0.74987756  0.36164218
   0.75000000  0.25581191  0.36098510
   0.75000000  0.75397103  0.36093588
   0.75000000  0.74039554  0.43279847
   0.75000000  0.89340434  0.42574522
Direct configuration=     8
   0.00000000  0.00000000  0.00000000
   0.00000000  0.50000000  0.00000000
   0.50000000  0.00000000  0.00000000
   0.50000000  0.50000000  0.00000000
   0.25000000  0.25000000  0.05351109
   0.25000000  0.75000000  0.05351109
   0.75000000  0.25000000  0.05351109
   0.75000000  0.75000000  0.05351109
   0.00000000  0.00000000  0.10541371
   0.00000000  0.50000000  0.10541371
   0.50000000  0.00000000  0.10541371
   0.50000000  0.50000000  0.10541371
   0.25000000  0.24993328  0.15706519
   0.25000000  0.75013899  0.15718215
   0.75000000  0.24999735  0.15760450
   0.75000000  0.74997468  0.15746503
   0.00024865  0.00011549  0.20861294
  -0.00019033  0.49981995  0.20860150
   0.49975135  0.00011549  0.20861294
   0.50019033  0.49981995  0.20860150
   0.25000000  0.25051927  0.25920587
   0.25000000  0.74952513  0.25936284
   0.75000000  0.24892559  0.25987116
   0.75000000  0.75043261  0.26003249
   0.00237294  0.00165810  0.31330134
   0.00138970  0.49935477  0.31390717
   0.49762706  0.00165810  0.31330134
   0.49861030  0.49935477  0.31390717
   0.25000000  0.25009088  0.36195839
   0.25000000  0.74986738  0.36164352
   0.75000000  0.25565636  0.36101925
   0.75000000  0.75390760  0.36074331
   0.75000000  0.74002493  0.43270048
   0.75000000  0.89428671  0.42573290
Direct configuration=     9
   0.00000000  0.00000000  0.00000000
   0.00000000  0.50000000  0.00000000
   0.50000000  0.00000000  0.00000000
   0.50000000  0.50000000  0.00000000
   0.25000000  0.25000000  0.05351109
   0.25000000  0.75000000  0.05351109
   0.75000000  0.25000000  0.05351109
   0.75000000  0.75000000  0.05351109
   0.00000000  0.00000000  0.10541371
   0.00000000  0.50000000  0.10541371
   0.50000000  0.00000000  0.10541371
   0.50000000  0.50000000  0.10541371
   0.25000000  0.25006129  0.15700000
   0.25000000  0.75002021  0.15714538
   0.75000000  0.24988839  0.15762469
   0.75000000  0.74999479  0.15754477
   0.00017697 -0.00003688  0.20850496
  -0.00032973  0.49991693  0.20860684
   0.49982303 -0.00003688  0.20850496
   0.50032973  0.49991693  0.20860684
   0.25000000  0.25078892  0.25906491
   0.25000000  0.74936231  0.25921077
   0.75000000  0.24920955  0.25977554
   0.75000000  0.75009290  0.25997334
   0.00244500  0.00175603  0.31325609
   0.00163709  0.50009897  0.31382023
   0.49755500  0.00175603  0.31325609
   0.49836291  0.50009897  0.31382023
   0.25000000  0.25012107  0.36203356
   0.25000000  0.74996973  0.36163819
   0.75000000  0.25643993  0.36077764
   0.75000000  0.75379493  0.36158896
   0.75000000  0.73804999  0.43325820
   0.75000000  0.89389557  0.42592917
Direct configuration=    10
   0.00000000  0.00000000  0.00000000
   0.00000000  0.50000000  0.00000000
   0.50000000  0.00000000  0.00000000
   0.50000000  0.50000000  0.00000000
   0.25000000  0.25000000  0.05351109
   0.25000000  0.75000000  0.05351109
   0.75000000  0.25000000  0.05351109
   0.75000000  0.75000000  0.05351109
   0.00000000  0.00000000  0.10541371
   0.00000000  0.50000000  0.10541371
   0.50000000  0.00000000  0.10541371
   0.50000000  0.50000000  0.10541371
   0.25000000  0.25009774  0.15698145
   0.25000000  0.74998640  0.15713491
   0.75000000  0.24985738  0.15763044
   0.75000000  0.75000051  0.15756747
   0.00015656 -0.00008025  0.20847422
  -0.00036941  0.49994453  0.20860836
   0.49984344 -0.00008025  0.20847422
   0.50036941  0.49994453  0.20860836
   0.25000000  0.25086568  0.25902478
   0.25000000  0.74931596  0.25916748
   0.75000000  0.24929039  0.25974832
   0.75000000  0.74999619  0.25995651
   0.00246551  0.00178391  0.31324321
   0.00170752  0.50031083  0.31379548
   0.49753449  0.00178391  0.31324321
   0.49829248  0.50031083  0.31379548
   0.25000000  0.25012966  0.36205496
   0.25000000  0.74999887  0.36163667
   0.75000000  0.25666299  0.36070886
   0.75000000  0.75376286  0.36182970
   0.75000000  0.73748778  0.43341697
   0.75000000  0.89378422  0.42598504
Direct configuration=    11
   0.00000000  0.00000000  0.00000000
   0.00000000  0.50000000  0.00000000
   0.50000000  0.00000000  0.00000000
   0.50000000  0.50000000  0.00000000
   0.25000000  0.25000000  0.05351109
   0.25000000  0.75000000  0.05351109
   0.75000000  0.25000000  0.05351109
   0.75000000  0.75000000  0.05351109
   0.00000000  0.00000000  0.10541371
   0.00000000  0.50000000  0.10541371
   0.50000000  0.00000000  0.10541371
   0.50000000  0.50000000  0.10541371
   0.25000000  0.25012651  0.15695405
   0.25000000  0.74997790  0.15708433
   0.75000000  0.24990794  0.15756578
   0.75000000  0.74994547  0.15750002
   0.00019460 -0.00000859  0.20846605
  -0.00033497  0.49988429  0.20856090
   0.49980540 -0.00000859  0.20846605
   0.50033497  0.49988429  0.20856090
   0.25000000  0.25079281  0.25900475
   0.25000000  0.74956100  0.25912745
   0.75000000  0.24922065  0.25969296
   0.75000000  0.75020424  0.26028232
   0.00215314  0.00177079  0.31324919
   0.00157961  0.50073586  0.31378418
   0.49784686  0.00177079  0.31324919
   0.49842039  0.50073586  0.31378418
   0.25000000  0.25022022  0.36201305
   0.25000000  0.75017830  0.36161836
   0.75000000  0.25678757  0.36058802
   0.75000000  0.75355589  0.36192399
   0.75000000  0.73633422  0.43375106
   0.75000000  0.89339429  0.42641578
Direct configuration=    12
   0.00000000  0.00000000  0.00000000
   0.00000000  0.50000000  0.00000000
   0.50000000  0.00000000  0.00000000
   0.50000000  0.50000000  0.00000000
   0.25000000  0.25000000  0.05351109
   0.25000000  0.75000000  0.05351109
   0.75000000  0.25000000  0.05351109
   0.75000000  0.75000000  0.05351109
   0.00000000  0.00000000  0.10541371
   0.00000000  0.50000000  0.10541371
   0.50000000  0.00000000  0.10541371
   0.50000000  0.50000000  0.10541371
   0.25000000  0.25015968  0.15692247
   0.25000000  0.74996810  0.15702603
   0.75000000  0.24996622  0.15749125
   0.75000000  0.74988203  0.15742229
   0.00023843  0.00007401  0.20845663
  -0.00029527  0.49981484  0.20850619
   0.49976157  0.00007401  0.20845663
   0.50029527  0.49981484  0.20850619
   0.25000000  0.25070883  0.25898166
   0.25000000  0.74984344  0.25908131
   0.75000000  0.24914027  0.25962914
   0.75000000  0.75044404  0.26065787
   0.00179310  0.00175566  0.31325608
   0.00143219  0.50122577  0.31377115
   0.49820690  0.00175566  0.31325608
   0.49856781  0.50122577  0.31377115
   0.25000000  0.25032461  0.36196475
   0.25000000  0.75038513  0.36159725
   0.75000000  0.25693116  0.36044874
   0.75000000  0.75331732  0.36203267
   0.75000000  0.73500459  0.43413614
   0.75000000  0.89294485  0.42691227
Direct configuration=    13
   0.00000000  0.00000000  0.00000000
   0.00000000  0.50000000  0.00000000
   0.50000000  0.00000000  0.00000000
   0.50000000  0.50000000  0.00000000
   0.25000000  0.25000000  0.05351109
   0.25000000  0.75000000  0.05351109
   0.75000000  0.25000000  0.05351109
   0.75000000  0.75000000  0.05351109
   0.00000000  0.00000000  0.10541371
   0.00000000  0.50000000  0.10541371
   0.50000000  0.00000000  0.10541371
   0.50000000  0.50000000  0.10541371
   0.25000000  0.25016252  0.15690873
   0.25000000  0.74997656  0.15700395
   0.75000000  0.24997690  0.15746278
   0.75000000  0.74987590  0.15743632
   0.00021441  0.00007012  0.20845448
  -0.00031371  0.49983903  0.20849204
   0.49978559  0.00007012  0.20845448
   0.50031371  0.49983903  0.20849204
   0.25000000  0.25070639  0.25898365
   0.25000000  0.74996372  0.25906474
   0.75000000  0.24915875  0.25957648
   0.75000000  0.75053306  0.26077904
   0.00167744  0.00181537  0.31326509
   0.00141424  0.50138930  0.31376163
   0.49832256  0.00181537  0.31326509
   0.49858576  0.50138930  0.31376163
   0.25000000  0.25039709  0.36192374
   0.25000000  0.75051599  0.36157962
   0.75000000  0.25694339  0.36040032
   0.75000000  0.75330250  0.36213497
   0.75000000  0.73491267  0.43429470
   0.75000000  0.89197108  0.42722381
Direct configuration=    14
   0.00000000  0.00000000  0.00000000
   0.00000000  0.50000000  0.00000000
   0.50000000  0.00000000  0.00000000
   0.50000000  0.50000000  0.00000000
   0.25000000  0.25000000  0.05351109
   0.25000000  0.75000000  0.05351109
   0.75000000  0.25000000  0.05351109
   0.75000000  0.75000000  0.05351109
   0.00000000  0.00000000  0.10541371
   0.00000000  0.50000000  0.10541371
   0.50000000  0.00000000  0.10541371
   0.50000000  0.50000000  0.10541371
   0.25000000  0.25017103  0.15686752
   0.25000000  0.75000195  0.15693771
   0.75000000  0.25000893  0.15737736
   0.75000000  0.74985750  0.15747842
   0.00014235  0.00005843  0.20844806
  -0.00036901  0.49991161  0.20844958
   0.49985765  0.00005843  0.20844806
   0.50036901  0.49991161  0.20844958
   0.25000000  0.25069908  0.25898962
   0.25000000  0.75032455  0.25901502
   0.75000000  0.24921419  0.25941851
   0.75000000  0.75080011  0.26114257
   0.00133048  0.00199450  0.31329211
   0.00136040  0.50187990  0.31373307
   0.49866952  0.00199450  0.31329211
   0.49863960  0.50187990  0.31373307
   0.25000000  0.25061452  0.36180072
   0.25000000  0.75090857  0.36152672
   0.75000000  0.25698009  0.36025508
   0.75000000  0.75325802  0.36244186
   0.75000000  0.73463691  0.43477039
   0.75000000  0.88904977  0.42815843
Direct configuration=    15
   0.00000000  0.00000000  0.00000000
   0.00000000  0.50000000  0.00000000
   0.50000000  0.00000000  0.00000000
   0.50000000  0.50000000  0.00000000
   0.25000000  0.25000000  0.05351109
   0.25000000  0.75000000  0.05351109
   0.75000000  0.25000000  0.05351109
   0.75000000  0.75000000  0.05351109
   0.00000000  0.00000000  0.10541371
   0.00000000  0.50000000  0.10541371
   0.50000000  0.00000000  0.10541371
   0.50000000  0.50000000  0.10541371
   0.25000000  0.25016251  0.15685988
   0.25000000  0.75002521  0.15692206
   0.75000000  0.25000257  0.15734823
   0.75000000  0.74988179  0.15754882
   0.00008127  0.00001873  0.20844622
  -0.00041311  0.50000392  0.20844831
   0.49991873  0.00001873  0.20844622
   0.50041311  0.50000392  0.20844831
   0.25000000  0.25075909  0.25899134
   0.25000000  0.75043463  0.25899807
   0.75000000  0.24932672  0.25934147
   0.75000000  0.75085040  0.26119415
   0.00127417  0.00214366  0.31331429
   0.00138846  0.50199085  0.31372394
   0.49872583  0.00214366  0.31331429
   0.49861154  0.50199085  0.31372394
   0.25000000  0.25074135  0.36174521
   0.25000000  0.75110850  0.36150149
   0.75000000  0.25697609  0.36020890
   0.75000000  0.75335351  0.36259424
   0.75000000  0.73374766  0.43503061
   0.75000000  0.88830563  0.42858145
Direct configuration=    16
   0.00000000  0.00000000  0.00000000
   0.00000000  0.50000000  0.00000000
   0.50000000  0.00000000  0.00000000
   0.50000000  0.50000000  0.00000000
   0.25000000  0.25000000  0.05351109
   0.25000000  0.75000000  0.05351109
   0.75000000  0.25000000  0.05351109
   0.75000000  0.75000000  0.05351109
   0.00000000  0.00000000  0.10541371
   0.00000000  0.50000000  0.10541371
   0.50000000  0.00000000  0.10541371
   0.50000000  0.50000000  0.10541371
   0.25000000  0.25013695  0.15683695
   0.25000000  0.75009500  0.15687508
   0.75000000  0.24998348  0.15726083
   0.75000000  0.74995465  0.15776004
  -0.00010198 -0.00010039  0.20844069
  -0.00054544  0.50028084  0.20844451
   0.50010198 -0.00010039  0.20844069
   0.50054544  0.50028084  0.20844451
   0.25000000  0.25093911  0.25899647
   0.25000000  0.75076486  0.25894722
   0.75000000  0.24966430  0.25911036
   0.75000000  0.75100129  0.26134889
   0.00110525  0.00259116  0.31338082
   0.00147265  0.50232371  0.31369654
   0.49889475  0.00259116  0.31338082
   0.49852735  0.50232371  0.31369654
   0.25000000  0.25112186  0.36157868
   0.25000000  0.75170831  0.36142579
   0.75000000  0.25696408  0.36007034
   0.75000000  0.75363998  0.36305137
   0.75000000  0.73107990  0.43581125
   0.75000000  0.88607320  0.42985053
Direct configuration=    17
   0.00000000  0.00000000  0.00000000
   0.00000000  0.50000000  0.00000000
   0.50000000  0.00000000  0.00000000
   0.50000000  0.50000000  0.00000000
   0.25000000  0.25000000  0.05351109
   0.25000000  0.75000000  0.05351109
   0.75000000  0.25000000  0.05351109
   0.75000000  0.75000000  0.05351109
   0.00000000  0.00000000  0.10541371
   0.00000000  0.50000000  0.10541371
   0.50000000  0.00000000  0.10541371
   0.50000000  0.50000000  0.10541371
   0.25000000  0.25008582  0.15679109
   0.25000000  0.75023458  0.15678113
   0.75000000  0.24994530  0.15708605
   0.75000000  0.75010036  0.15818247
  -0.00046848 -0.00033862  0.20842964
  -0.00081008  0.50083470  0.20843689
   0.50046848 -0.00033862  0.20842964
   0.50081008  0.50083470  0.20843689
   0.25000000  0.25129916  0.25900674
   0.25000000  0.75142532  0.25884553
   0.75000000  0.25033947  0.25864813
   0.75000000  0.75130307  0.26165837
   0.00076741  0.00348615  0.31351387
   0.00164103  0.50298942  0.31364176
   0.49923259  0.00348615  0.31351387
   0.49835897  0.50298942  0.31364176
   0.25000000  0.25188288  0.36124563
   0.25000000  0.75290793  0.36127440
   0.75000000  0.25694006  0.35979323
   0.75000000  0.75421292  0.36396563
   0.75000000  0.72574437  0.43737254
   0.75000000  0.88160835  0.43238867
Direct configuration=    18
   0.00000000  0.00000000  0.00000000
   0.00000000  0.50000000  0.00000000
   0.50000000  0.00000000  0.00000000
   0.50000000  0.50000000  0.00000000
   0.25000000  0.25000000  0.05351109
   0.25000000  0.75000000  0.05351109
   0.75000000  0.25000000  0.05351109
   0.75000000  0.75000000  0.05351109
   0.00000000  0.00000000  0.10541371
   0.00000000  0.50000000  0.10541371
   0.50000000  0.00000000  0.10541371
   0.50000000  0.50000000  0.10541371
   0.25000000  0.25010392  0.15680732
   0.25000000  0.75018517  0.15681439
   0.75000000  0.24995881  0.15714793
   0.75000000  0.75004877  0.15803292
  -0.00033873 -0.00025428  0.20843355
  -0.00071639  0.50063862  0.20843959
   0.50033873 -0.00025428  0.20843355
   0.50071639  0.50063862  0.20843959
   0.25000000  0.25117169  0.25900311
   0.25000000  0.75119150  0.25888153
   0.75000000  0.25010044  0.25881177
   0.75000000  0.75119623  0.26154880
   0.00088701  0.00316930  0.31346677
   0.00158142  0.50275374  0.31366115
   0.49911299  0.00316930  0.31346677
   0.49841858  0.50275374  0.31366115
   0.25000000  0.25161346  0.36136354
   0.25000000  0.75248323  0.36132800
   0.75000000  0.25694856  0.35989133
   0.75000000  0.75401008  0.36364196
   0.75000000  0.72763329  0.43681981
   0.75000000  0.88318902  0.43149010
Direct configuration=    19
   0.00000000  0.00000000  0.00000000
   0.00000000  0.50000000  0.00000000
   0.50000000  0.00000000  0.00000000
   0.50000000  0.50000000  0.00000000
   0.25000000  0.25000000  0.05351109
   0.25000000  0.75000000  0.05351109
   0.75000000  0.25000000  0.05351109
   0.75000000  0.75000000  0.05351109
   0.00000000  0.00000000  0.10541371
   0.00000000  0.50000000  0.10541371
   0.50000000  0.00000000  0.10541371
   0.50000000  0.50000000  0.10541371
   0.25000000  0.25009657  0.15680073
   0.25000000  0.75020524  0.15680088
   0.75000000  0.24995332  0.15712279
   0.75000000  0.75006972  0.15809367
  -0.00039143 -0.00028854  0.20843196
  -0.00075445  0.50071827  0.20843849
   0.50039143 -0.00028854  0.20843196
   0.50075445  0.50071827  0.20843849
   0.25000000  0.25122347  0.25900458
   0.25000000  0.75128648  0.25886690
   0.75000000  0.25019754  0.25874530
   0.75000000  0.75123963  0.26159331
   0.00083843  0.00329800  0.31348590
   0.00160563  0.50284948  0.31365327
   0.49916157  0.00329800  0.31348590
   0.49839437  0.50284948  0.31365327
   0.25000000  0.25172290  0.36131564
   0.25000000  0.75265575  0.36130623
   0.75000000  0.25694511  0.35985148
   0.75000000  0.75409248  0.36377344
   0.75000000  0.72686600  0.43704433
   0.75000000  0.88254694  0.43185510
Direct configuration=    20
   0.00000000  0.00000000  0.00000000
   0.00000000  0.50000000  0.00000000
   0.50000000  0.00000000  0.00000000
   0.50000000  0.50000000  0.00000000
   0.25000000  0.25000000  0.05351109
   0.25000000  0.75000000  0.05351109
   0.75000000  0.25000000  0.05351109
   0.75000000  0.75000000  0.05351109
   0.00000000  0.00000000  0.10541371
   0.00000000  0.50000000  0.10541371
   0.50000000  0.00000000  0.10541371
   0.50000000  0.50000000  0.10541371
   0.25000000  0.25014354  0.15687981
   0.25000000  0.75020254  0.15685462
   0.75000000  0.24999819  0.15709595
   0.75000000  0.75010584  0.15805168
  -0.00023490 -0.00008082  0.20846025
  -0.00055341  0.50070003  0.20847093
   0.50023490 -0.00008082  0.20846025
   0.50055341  0.50070003  0.20847093
   0.25000000  0.25138240  0.25889888
   0.25000000  0.75131165  0.25887148
   0.75000000  0.25041957  0.25885326
   0.75000000  0.75123681  0.26154936
   0.00085882  0.00325485  0.31349356
   0.00142516  0.50298461  0.31367877
   0.49914118  0.00325485  0.31349356
   0.49857484  0.50298461  0.31367877
   0.25000000  0.25198130  0.36138173
   0.25000000  0.75280109  0.36130799
   0.75000000  0.25713123  0.35986345
   0.75000000  0.75450467  0.36392072
   0.75000000  0.72548589  0.43731413
   0.75000000  0.88135145  0.43222120
Direct configuration=    21
   0.00000000  0.00000000  0.00000000
   0.00000000  0.50000000  0.00000000
   0.50000000  0.00000000  0.00000000
   0.50000000  0.50000000  0.00000000
   0.25000000  0.25000000  0.05351109
   0.25000000  0.75000000  0.05351109
   0.75000000  0.25000000  0.05351109
   0.75000000  0.75000000  0.05351109
   0.00000000  0.00000000  0.10541371
   0.00000000  0.50000000  0.10541371
   0.50000000  0.00000000  0.10541371
   0.50000000  0.50000000  0.10541371
   0.25000000  0.25019548  0.15696724
   0.25000000  0.75019956  0.15691403
   0.75000000  0.25004780  0.15706627
   0.75000000  0.75014576  0.15800525
  -0.00006184  0.00014884  0.20849153
  -0.00033114  0.50067987  0.20850678
   0.50006184  0.00014884  0.20849153
   0.50033114  0.50067987  0.20850678
   0.25000000  0.25155812  0.25878200
   0.25000000  0.75133948  0.25887654
   0.75000000  0.25066506  0.25897263
   0.75000000  0.75123369  0.26150077
   0.00088136  0.00320715  0.31350202
   0.00122563  0.50313402  0.31370697
   0.49911864  0.00320715  0.31350202
   0.49877437  0.50313402  0.31370697
   0.25000000  0.25226700  0.36145479
   0.25000000  0.75296179  0.36130995
   0.75000000  0.25733701  0.35987669
   0.75000000  0.75496041  0.36408357
   0.75000000  0.72396000  0.43761242
   0.75000000  0.88002967  0.43262596
Direct configuration=    22
   0.00000000  0.00000000  0.00000000
   0.00000000  0.50000000  0.00000000
   0.50000000  0.00000000  0.00000000
   0.50000000  0.50000000  0.00000000
   0.25000000  0.25000000  0.05351109
   0.25000000  0.75000000  0.05351109
   0.75000000  0.25000000  0.05351109
   0.75000000  0.75000000  0.05351109
   0.00000000  0.00000000  0.10541371
   0.00000000  0.50000000  0.10541371
   0.50000000  0.00000000  0.10541371
   0.50000000  0.50000000  0.10541371
   0.25000000  0.25029935  0.15714211
   0.25000000  0.75019360  0.15703287
   0.75000000  0.25014702  0.15700690
   0.75000000  0.75022561  0.15791240
   0.00028429  0.00060816  0.20855408
   0.00011340  0.50063954  0.20857850
   0.49971571  0.00060816  0.20855408
   0.49988660  0.50063954  0.20857850
   0.25000000  0.25190956  0.25854826
   0.25000000  0.75139514  0.25888667
   0.75000000  0.25115603  0.25921137
   0.75000000  0.75122746  0.26140360
   0.00092645  0.00311173  0.31351895
   0.00082657  0.50343284  0.31376336
   0.49907355  0.00311173  0.31351895
   0.49917343  0.50343284  0.31376336
   0.25000000  0.25283840  0.36160091
   0.25000000  0.75328318  0.36131385
   0.75000000  0.25774857  0.35990317
   0.75000000  0.75587187  0.36440926
   0.75000000  0.72090822  0.43820901
   0.75000000  0.87738613  0.43343549
Direct configuration=    23
   0.00000000  0.00000000  0.00000000
   0.00000000  0.50000000  0.00000000
   0.50000000  0.00000000  0.00000000
   0.50000000  0.50000000  0.00000000
   0.25000000  0.25000000  0.05351109
   0.25000000  0.75000000  0.05351109
   0.75000000  0.25000000  0.05351109
   0.75000000  0.75000000  0.05351109
   0.00000000  0.00000000  0.10541371
   0.00000000  0.50000000  0.10541371
   0.50000000  0.00000000  0.10541371
   0.50000000  0.50000000  0.10541371
   0.25000000  0.25021904  0.15700691
   0.25000000  0.75019821  0.15694099
   0.75000000  0.25007031  0.15705280
   0.75000000  0.75016387  0.15798419
   0.00001667  0.00025302  0.20850572
  -0.00023031  0.50067072  0.20852305
   0.49998333  0.00025302  0.20850572