  18  18   0   0
  0.2028145E+02  0.3630000E-09  0.3630000E-09  0.2770500E-08  0.5000000E-15
  1.000000000000000E-004
  CAR 
 unknown system                          
     13.24484299     -9.44020146  301      1.96743889      1.00000000
     -9.440  0.0000E+00  0.0000E+00  0.0000E+00  0.0000E+00
     -9.365  0.0000E+00  0.0000E+00  0.0000E+00  0.0000E+00
     -9.289  0.0000E+00  0.0000E+00  0.0000E+00  0.0000E+00
     -9.213  0.0000E+00  0.0000E+00  0.0000E+00  0.0000E+00
     -9.138  0.0000E+00  0.0000E+00  0.0000E+00  0.0000E+00
     -9.062 -0.1153E-30 -0.1153E-30 -0.8721E-32 -0.8721E-32
     -8.987 -0.4377E-28 -0.4377E-28 -0.3318E-29 -0.3318E-29
     -8.911 -0.1247E-25 -0.1247E-25 -0.9464E-27 -0.9464E-27
     -8.835 -0.2663E-23 -0.2663E-23 -0.2023E-24 -0.2023E-24
     -8.760 -0.4256E-21 -0.4256E-21 -0.3239E-22 -0.3239E-22
     -8.684 -0.5092E-19 -0.5092E-19 -0.3883E-20 -0.3883E-20
     -8.608 -0.4456E-17 -0.4456E-17 -0.3408E-18 -0.3408E-18
     -8.533 -0.2948E-15 -0.2948E-15 -0.2263E-16 -0.2263E-16
     -8.457 -0.1465E-13 -0.1465E-13 -0.1131E-14 -0.1131E-14
     -8.382 -0.5424E-12 -0.5424E-12 -0.4214E-13 -0.4214E-13
     -8.306 -0.1492E-10 -0.1492E-10 -0.1171E-11 -0.1171E-11
     -8.230 -0.3043E-09 -0.3043E-09 -0.2418E-10 -0.2418E-10
     -8.155 -0.4581E-08 -0.4581E-08 -0.3706E-09 -0.3706E-09
     -8.079 -0.5059E-07 -0.5059E-07 -0.4196E-08 -0.4196E-08
     -8.003 -0.4059E-06 -0.4059E-06 -0.3489E-07 -0.3489E-07
     -7.928 -0.2328E-05 -0.2328E-05 -0.2109E-06 -0.2109E-06
     -7.852 -0.9239E-05 -0.9239E-05 -0.9096E-06 -0.9096E-06
     -7.777 -0.2348E-04 -0.2348E-04 -0.2685E-05 -0.2685E-05
     -7.701 -0.2802E-04 -0.2802E-04 -0.4804E-05 -0.4804E-05
     -7.625  0.3479E-04  0.3479E-04 -0.2173E-05 -0.2173E-05
     -7.550  0.2210E-03  0.2210E-03  0.1454E-04  0.1454E-04
     -7.474  0.4657E-03  0.4657E-03  0.4975E-04  0.4975E-04
     -7.399  0.5729E-03  0.5729E-03  0.9307E-04  0.9307E-04
     -7.323  0.4329E-03  0.4329E-03  0.1258E-03  0.1258E-03
     -7.247  0.1712E-03  0.1712E-03  0.1388E-03  0.1388E-03
     -7.172 -0.1388E-05 -0.1388E-05  0.1386E-03  0.1386E-03
     -7.096  0.2626E-04  0.2626E-04  0.1406E-03  0.1406E-03
     -7.020  0.2381E-03  0.2381E-03  0.1586E-03  0.1586E-03
     -6.945  0.4895E-03  0.4895E-03  0.1957E-03  0.1957E-03
     -6.869  0.5684E-03  0.5684E-03  0.2386E-03  0.2386E-03
     -6.794  0.4065E-03  0.4065E-03  0.2694E-03  0.2694E-03
     -6.718  0.1598E-03  0.1598E-03  0.2815E-03  0.2815E-03
     -6.642 -0.1277E-05 -0.1277E-05  0.2814E-03  0.2814E-03
     -6.567 -0.6800E-04 -0.6800E-04  0.2762E-03  0.2762E-03
     -6.491 -0.1220E-03 -0.1220E-03  0.2670E-03  0.2670E-03
     -6.416 -0.1506E-03 -0.1506E-03  0.2556E-03  0.2556E-03
     -6.340  0.8550E-04  0.8550E-04  0.2621E-03  0.2621E-03
     -6.264  0.8956E-03  0.8956E-03  0.3298E-03  0.3298E-03
     -6.189  0.2099E-02  0.2099E-02  0.4885E-03  0.4885E-03
     -6.113  0.2808E-02  0.2808E-02  0.7008E-03  0.7008E-03
     -6.037  0.2330E-02  0.2330E-02  0.8770E-03  0.8770E-03
     -5.962  0.1103E-02  0.1103E-02  0.9604E-03  0.9604E-03
     -5.886  0.2296E-03  0.2296E-03  0.9778E-03  0.9778E-03
     -5.811  0.3791E-03  0.3791E-03  0.1006E-02  0.1006E-02
     -5.735  0.1329E-02  0.1329E-02  0.1107E-02  0.1107E-02
     -5.659  0.2173E-02  0.2173E-02  0.1271E-02  0.1271E-02
     -5.584  0.2096E-02  0.2096E-02  0.1430E-02  0.1430E-02
     -5.508  0.1208E-02  0.1208E-02  0.1521E-02  0.1521E-02
     -5.433  0.2898E-03  0.2898E-03  0.1543E-02  0.1543E-02
     -5.357 -0.1964E-03 -0.1964E-03  0.1528E-02  0.1528E-02
     -5.281 -0.3216E-03 -0.3216E-03  0.1504E-02  0.1504E-02
     -5.206 -0.8967E-04 -0.8967E-04  0.1497E-02  0.1497E-02
     -5.130  0.8551E-03  0.8551E-03  0.1562E-02  0.1562E-02
     -5.054  0.2625E-02  0.2625E-02  0.1760E-02  0.1760E-02
     -4.979  0.4323E-02  0.4323E-02  0.2087E-02  0.2087E-02
     -4.903  0.4577E-02  0.4577E-02  0.2433E-02  0.2433E-02
     -4.828  0.3241E-02  0.3241E-02  0.2678E-02  0.2678E-02
     -4.752  0.1804E-02  0.1804E-02  0.2815E-02  0.2815E-02
     -4.676  0.1574E-02  0.1574E-02  0.2934E-02  0.2934E-02
     -4.601  0.2204E-02  0.2204E-02  0.3101E-02  0.3101E-02
     -4.525  0.2604E-02  0.2604E-02  0.3297E-02  0.3297E-02
     -4.449  0.2557E-02  0.2557E-02  0.3491E-02  0.3491E-02
     -4.374  0.2587E-02  0.2587E-02  0.3686E-02  0.3686E-02
     -4.298  0.2860E-02  0.2860E-02  0.3903E-02  0.3903E-02
     -4.223  0.3133E-02  0.3133E-02  0.4140E-02  0.4140E-02
     -4.147  0.3335E-02  0.3335E-02  0.4392E-02  0.4392E-02
     -4.071  0.3624E-02  0.3624E-02  0.4666E-02  0.4666E-02
     -3.996  0.4038E-02  0.4038E-02  0.4971E-02  0.4971E-02
     -3.920  0.4237E-02  0.4237E-02  0.5292E-02  0.5292E-02
     -3.845  0.3685E-02  0.3685E-02  0.5570E-02  0.5570E-02
     -3.769  0.2306E-02  0.2306E-02  0.5745E-02  0.5745E-02
     -3.693  0.8718E-03  0.8718E-03  0.5810E-02  0.5810E-02
     -3.618  0.5335E-03  0.5335E-03  0.5851E-02  0.5851E-02
     -3.542  0.1780E-02  0.1780E-02  0.5985E-02  0.5985E-02
     -3.466  0.3626E-02  0.3626E-02  0.6260E-02  0.6260E-02
     -3.391  0.4237E-02  0.4237E-02  0.6580E-02  0.6580E-02
     -3.315  0.3032E-02  0.3032E-02  0.6809E-02  0.6809E-02
     -3.240  0.1618E-02  0.1618E-02  0.6932E-02  0.6932E-02
     -3.164  0.1993E-02  0.1993E-02  0.7082E-02  0.7082E-02
     -3.088  0.4616E-02  0.4616E-02  0.7431E-02  0.7431E-02
     -3.013  0.8619E-02  0.8619E-02  0.8083E-02  0.8083E-02
     -2.937  0.1284E-01  0.1284E-01  0.9054E-02  0.9054E-02
     -2.862  0.1590E-01  0.1590E-01  0.1026E-01  0.1026E-01
     -2.786  0.1625E-01  0.1625E-01  0.1148E-01  0.1148E-01
     -2.710  0.1393E-01  0.1393E-01  0.1254E-01  0.1254E-01
     -2.635  0.1149E-01  0.1149E-01  0.1341E-01  0.1341E-01
     -2.559  0.1145E-01  0.1145E-01  0.1427E-01  0.1427E-01
     -2.483  0.1391E-01  0.1391E-01  0.1532E-01  0.1532E-01
     -2.408  0.1780E-01  0.1780E-01  0.1667E-01  0.1667E-01
     -2.332  0.2220E-01  0.2220E-01  0.1835E-01  0.1835E-01
     -2.257  0.2584E-01  0.2584E-01  0.2030E-01  0.2030E-01
     -2.181  0.2686E-01  0.2686E-01  0.2233E-01  0.2233E-01
     -2.105  0.2434E-01  0.2434E-01  0.2417E-01  0.2417E-01
     -2.030  0.1968E-01  0.1968E-01  0.2566E-01  0.2566E-01
     -1.954  0.1579E-01  0.1579E-01  0.2686E-01  0.2686E-01
     -1.879  0.1476E-01  0.1476E-01  0.2797E-01  0.2797E-01
     -1.803  0.1671E-01  0.1671E-01  0.2924E-01  0.2924E-01
     -1.727  0.2021E-01  0.2021E-01  0.3076E-01  0.3076E-01
     -1.652  0.2336E-01  0.2336E-01  0.3253E-01  0.3253E-01
     -1.576  0.2474E-01  0.2474E-01  0.3440E-01  0.3440E-01
     -1.500  0.2430E-01  0.2430E-01  0.3624E-01  0.3624E-01
     -1.425  0.2354E-01  0.2354E-01  0.3802E-01  0.3802E-01
     -1.349  0.2439E-01  0.2439E-01  0.3986E-01  0.3986E-01
     -1.274  0.2748E-01  0.2748E-01  0.4194E-01  0.4194E-01
     -1.198  0.3222E-01  0.3222E-01  0.4438E-01  0.4438E-01
     -1.122  0.3749E-01  0.3749E-01  0.4721E-01  0.4721E-01
     -1.047  0.4137E-01  0.4137E-01  0.5034E-01  0.5034E-01
     -0.971  0.4189E-01  0.4189E-01  0.5351E-01  0.5351E-01
     -0.896  0.3912E-01  0.3912E-01  0.5647E-01  0.5647E-01
     -0.820  0.3542E-01  0.3542E-01  0.5915E-01  0.5915E-01
     -0.744  0.3245E-01  0.3245E-01  0.6160E-01  0.6160E-01
     -0.669  0.3028E-01  0.3028E-01  0.6389E-01  0.6389E-01
     -0.593  0.2950E-01  0.2950E-01  0.6612E-01  0.6612E-01
     -0.517  0.3049E-01  0.3049E-01  0.6843E-01  0.6843E-01
     -0.442  0.3153E-01  0.3153E-01  0.7081E-01  0.7081E-01
     -0.366  0.3136E-01  0.3136E-01  0.7318E-01  0.7318E-01
     -0.291  0.3195E-01  0.3195E-01  0.7560E-01  0.7560E-01
     -0.215  0.3567E-01  0.3567E-01  0.7829E-01  0.7829E-01
     -0.139  0.4141E-01  0.4141E-01  0.8143E-01  0.8143E-01
     -0.064  0.4548E-01  0.4548E-01  0.8486E-01  0.8486E-01
      0.012  0.4586E-01  0.4586E-01  0.8833E-01  0.8833E-01
      0.088  0.4447E-01  0.4447E-01  0.9169E-01  0.9169E-01
      0.163  0.4446E-01  0.4446E-01  0.9506E-01  0.9506E-01
      0.239  0.4554E-01  0.4554E-01  0.9850E-01  0.9850E-01
      0.314  0.4351E-01  0.4351E-01  0.1018E+00  0.1018E+00
      0.390  0.3519E-01  0.3519E-01  0.1045E+00  0.1045E+00
      0.466  0.2255E-01  0.2255E-01  0.1062E+00  0.1062E+00
      0.541  0.1062E-01  0.1062E-01  0.1070E+00  0.1070E+00
      0.617  0.2902E-02  0.2902E-02  0.1072E+00  0.1072E+00
      0.692 -0.2642E-03 -0.2642E-03  0.1072E+00  0.1072E+00
      0.768 -0.1313E-03 -0.1313E-03  0.1071E+00  0.1071E+00
      0.844  0.1969E-02  0.1969E-02  0.1073E+00  0.1073E+00
      0.919  0.4513E-02  0.4513E-02  0.1076E+00  0.1076E+00
      0.995  0.5786E-02  0.5786E-02  0.1081E+00  0.1081E+00
      1.071  0.5032E-02  0.5032E-02  0.1085E+00  0.1085E+00
      1.146  0.3024E-02  0.3024E-02  0.1087E+00  0.1087E+00
      1.222  0.1112E-02  0.1112E-02  0.1088E+00  0.1088E+00
      1.297  0.8876E-04  0.8876E-04  0.1088E+00  0.1088E+00
      1.373 -0.9502E-04 -0.9502E-04  0.1088E+00  0.1088E+00
      1.449  0.1037E-03  0.1037E-03  0.1088E+00  0.1088E+00
      1.524  0.4534E-03  0.4534E-03  0.1088E+00  0.1088E+00
      1.600  0.1277E-02  0.1277E-02  0.1089E+00  0.1089E+00
      1.675  0.3072E-02  0.3072E-02  0.1091E+00  0.1091E+00
      1.751  0.5636E-02  0.5636E-02  0.1096E+00  0.1096E+00
      1.827  0.7731E-02  0.7731E-02  0.1102E+00  0.1102E+00
      1.902  0.8201E-02  0.8201E-02  0.1108E+00  0.1108E+00
      1.978  0.7251E-02  0.7251E-02  0.1113E+00  0.1113E+00
      2.054  0.5693E-02  0.5693E-02  0.1118E+00  0.1118E+00
      2.129  0.3734E-02  0.3734E-02  0.1120E+00  0.1120E+00
      2.205  0.1888E-02  0.1888E-02  0.1122E+00  0.1122E+00
      2.280  0.1684E-02  0.1684E-02  0.1123E+00  0.1123E+00
      2.356  0.3780E-02  0.3780E-02  0.1126E+00  0.1126E+00
      2.432  0.6361E-02  0.6361E-02  0.1131E+00  0.1131E+00
      2.507  0.6969E-02  0.6969E-02  0.1136E+00  0.1136E+00
      2.583  0.5444E-02  0.5444E-02  0.1140E+00  0.1140E+00
      2.658  0.3739E-02  0.3739E-02  0.1143E+00  0.1143E+00
      2.734  0.3435E-02  0.3435E-02  0.1146E+00  0.1146E+00
      2.810  0.4322E-02  0.4322E-02  0.1149E+00  0.1149E+00
      2.885  0.4845E-02  0.4845E-02  0.1152E+00  0.1152E+00
      2.961  0.3874E-02  0.3874E-02  0.1155E+00  0.1155E+00
      3.037  0.2170E-02  0.2170E-02  0.1157E+00  0.1157E+00
      3.112  0.1346E-02  0.1346E-02  0.1158E+00  0.1158E+00
      3.188  0.1676E-02  0.1676E-02  0.1159E+00  0.1159E+00
      3.263  0.2017E-02  0.2017E-02  0.1161E+00  0.1161E+00
      3.339  0.1642E-02  0.1642E-02  0.1162E+00  0.1162E+00
      3.415  0.1041E-02  0.1041E-02  0.1163E+00  0.1163E+00
      3.490  0.8482E-03  0.8482E-03  0.1163E+00  0.1163E+00
      3.566  0.1061E-02  0.1061E-02  0.1164E+00  0.1164E+00
      3.642  0.1554E-02  0.1554E-02  0.1165E+00  0.1165E+00
      3.717  0.2357E-02  0.2357E-02  0.1167E+00  0.1167E+00
      3.793  0.3202E-02  0.3202E-02  0.1170E+00  0.1170E+00
      3.868  0.3595E-02  0.3595E-02  0.1172E+00  0.1172E+00
      3.944  0.3320E-02  0.3320E-02  0.1175E+00  0.1175E+00
      4.020  0.2448E-02  0.2448E-02  0.1177E+00  0.1177E+00
      4.095  0.1269E-02  0.1269E-02  0.1178E+00  0.1178E+00
      4.171  0.2764E-03  0.2764E-03  0.1178E+00  0.1178E+00
      4.246 -0.1703E-03 -0.1703E-03  0.1178E+00  0.1178E+00
      4.322 -0.4596E-04 -0.4596E-04  0.1178E+00  0.1178E+00
      4.398  0.5528E-03  0.5528E-03  0.1178E+00  0.1178E+00
      4.473  0.1483E-02  0.1483E-02  0.1179E+00  0.1179E+00
      4.549  0.2390E-02  0.2390E-02  0.1181E+00  0.1181E+00
      4.625  0.2737E-02  0.2737E-02  0.1183E+00  0.1183E+00
      4.700  0.2300E-02  0.2300E-02  0.1185E+00  0.1185E+00
      4.776  0.1647E-02  0.1647E-02  0.1186E+00  0.1186E+00
      4.851  0.1561E-02  0.1561E-02  0.1187E+00  0.1187E+00
      4.927  0.1976E-02  0.1976E-02  0.1189E+00  0.1189E+00
      5.003  0.2244E-02  0.2244E-02  0.1191E+00  0.1191E+00
      5.078  0.2283E-02  0.2283E-02  0.1192E+00  0.1192E+00
      5.154  0.2470E-02  0.2470E-02  0.1194E+00  0.1194E+00
      5.229  0.2786E-02  0.2786E-02  0.1196E+00  0.1196E+00
      5.305  0.2951E-02  0.2951E-02  0.1198E+00  0.1198E+00
      5.381  0.2957E-02  0.2957E-02  0.1201E+00  0.1201E+00
      5.456  0.2950E-02  0.2950E-02  0.1203E+00  0.1203E+00
      5.532  0.2879E-02  0.2879E-02  0.1205E+00  0.1205E+00
      5.608  0.2614E-02  0.2614E-02  0.1207E+00  0.1207E+00
      5.683  0.2553E-02  0.2553E-02  0.1209E+00  0.1209E+00
      5.759  0.3690E-02  0.3690E-02  0.1212E+00  0.1212E+00
      5.834  0.6258E-02  0.6258E-02  0.1217E+00  0.1217E+00
      5.910  0.8574E-02  0.8574E-02  0.1223E+00  0.1223E+00
      5.986  0.8362E-02  0.8362E-02  0.1229E+00  0.1229E+00
      6.061  0.5437E-02  0.5437E-02  0.1233E+00  0.1233E+00
      6.137  0.2066E-02  0.2066E-02  0.1235E+00  0.1235E+00
      6.212  0.5019E-03  0.5019E-03  0.1235E+00  0.1235E+00
      6.288  0.9993E-03  0.9993E-03  0.1236E+00  0.1236E+00
      6.364  0.2162E-02  0.2162E-02  0.1238E+00  0.1238E+00
      6.439  0.2610E-02  0.2610E-02  0.1240E+00  0.1240E+00
      6.515  0.2283E-02  0.2283E-02  0.1241E+00  0.1241E+00
      6.591  0.2041E-02  0.2041E-02  0.1243E+00  0.1243E+00
      6.666  0.2310E-02  0.2310E-02  0.1245E+00  0.1245E+00
      6.742  0.2939E-02  0.2939E-02  0.1247E+00  0.1247E+00
      6.817  0.3933E-02  0.3933E-02  0.1250E+00  0.1250E+00
      6.893  0.5259E-02  0.5259E-02  0.1254E+00  0.1254E+00
      6.969  0.6330E-02  0.6330E-02  0.1259E+00  0.1259E+00
      7.044  0.6363E-02  0.6363E-02  0.1264E+00  0.1264E+00
      7.120  0.5199E-02  0.5199E-02  0.1267E+00  0.1267E+00
      7.195  0.3643E-02  0.3643E-02  0.1270E+00  0.1270E+00
      7.271  0.2710E-02  0.2710E-02  0.1272E+00  0.1272E+00
      7.347  0.2669E-02  0.2669E-02  0.1274E+00  0.1274E+00
      7.422  0.3306E-02  0.3306E-02  0.1277E+00  0.1277E+00
      7.498  0.4514E-02  0.4514E-02  0.1280E+00  0.1280E+00
      7.574  0.5866E-02  0.5866E-02  0.1285E+00  0.1285E+00
      7.649  0.6280E-02  0.6280E-02  0.1289E+00  0.1289E+00
      7.725  0.5046E-02  0.5046E-02  0.1293E+00  0.1293E+00
      7.800  0.2935E-02  0.2935E-02  0.1295E+00  0.1295E+00
      7.876  0.1525E-02  0.1525E-02  0.1297E+00  0.1297E+00
      7.952  0.1440E-02  0.1440E-02  0.1298E+00  0.1298E+00
      8.027  0.1925E-02  0.1925E-02  0.1299E+00  0.1299E+00
      8.103  0.2334E-02  0.2334E-02  0.1301E+00  0.1301E+00
      8.179  0.2976E-02  0.2976E-02  0.1303E+00  0.1303E+00
      8.254  0.3897E-02  0.3897E-02  0.1306E+00  0.1306E+00
      8.330  0.4189E-02  0.4189E-02  0.1309E+00  0.1309E+00
      8.405  0.3424E-02  0.3424E-02  0.1312E+00  0.1312E+00
      8.481  0.2441E-02  0.2441E-02  0.1314E+00  0.1314E+00
      8.557  0.2016E-02  0.2016E-02  0.1315E+00  0.1315E+00
      8.632  0.2216E-02  0.2216E-02  0.1317E+00  0.1317E+00
      8.708  0.3194E-02  0.3194E-02  0.1319E+00  0.1319E+00
      8.783  0.4973E-02  0.4973E-02  0.1323E+00  0.1323E+00
      8.859  0.6667E-02  0.6667E-02  0.1328E+00  0.1328E+00
      8.935  0.7431E-02  0.7431E-02  0.1334E+00  0.1334E+00
      9.010  0.7595E-02  0.7595E-02  0.1339E+00  0.1339E+00
      9.086  0.7733E-02  0.7733E-02  0.1345E+00  0.1345E+00
      9.162  0.7399E-02  0.7399E-02  0.1351E+00  0.1351E+00
      9.237  0.5870E-02  0.5870E-02  0.1355E+00  0.1355E+00
      9.313  0.3635E-02  0.3635E-02  0.1358E+00  0.1358E+00
      9.388  0.2123E-02  0.2123E-02  0.1360E+00  0.1360E+00
      9.464  0.2203E-02  0.2203E-02  0.1361E+00  0.1361E+00
      9.540  0.3576E-02  0.3576E-02  0.1364E+00  0.1364E+00
      9.615  0.5304E-02  0.5304E-02  0.1368E+00  0.1368E+00
      9.691  0.6354E-02  0.6354E-02  0.1373E+00  0.1373E+00
      9.766  0.5901E-02  0.5901E-02  0.1377E+00  0.1377E+00
      9.842  0.3992E-02  0.3992E-02  0.1380E+00  0.1380E+00
      9.918  0.2062E-02  0.2062E-02  0.1382E+00  0.1382E+00
      9.993  0.1815E-02  0.1815E-02  0.1383E+00  0.1383E+00
     10.069  0.3283E-02  0.3283E-02  0.1386E+00  0.1386E+00
     10.145  0.4886E-02  0.4886E-02  0.1389E+00  0.1389E+00
     10.220  0.5603E-02  0.5603E-02  0.1394E+00  0.1394E+00
     10.296  0.5998E-02  0.5998E-02  0.1398E+00  0.1398E+00
     10.371  0.6853E-02  0.6853E-02  0.1403E+00  0.1403E+00
     10.447  0.8043E-02  0.8043E-02  0.1410E+00  0.1410E+00
     10.523  0.9008E-02  0.9008E-02  0.1416E+00  0.1416E+00
     10.598  0.9050E-02  0.9050E-02  0.1423E+00  0.1423E+00
     10.674  0.7462E-02  0.7462E-02  0.1429E+00  0.1429E+00
     10.749  0.4487E-02  0.4487E-02  0.1432E+00  0.1432E+00
     10.825  0.1534E-02  0.1534E-02  0.1433E+00  0.1433E+00
     10.901 -0.4480E-04 -0.4480E-04  0.1433E+00  0.1433E+00
     10.976  0.2947E-03  0.2947E-03  0.1434E+00  0.1434E+00
     11.052  0.2357E-02  0.2357E-02  0.1435E+00  0.1435E+00
     11.128  0.4959E-02  0.4959E-02  0.1439E+00  0.1439E+00
     11.203  0.6215E-02  0.6215E-02  0.1444E+00  0.1444E+00
     11.279  0.5174E-02  0.5174E-02  0.1448E+00  0.1448E+00
     11.354  0.2806E-02  0.2806E-02  0.1450E+00  0.1450E+00
     11.430  0.7910E-03  0.7909E-03  0.1450E+00  0.1450E+00
     11.506 -0.1210E-03 -0.1210E-03  0.1450E+00  0.1450E+00
     11.581 -0.2470E-03 -0.2470E-03  0.1450E+00  0.1450E+00
     11.657 -0.1331E-03 -0.1331E-03  0.1450E+00  0.1450E+00
     11.733 -0.4391E-04 -0.4391E-04  0.1450E+00  0.1450E+00
     11.808 -0.9984E-05 -0.9984E-05  0.1450E+00  0.1450E+00
     11.884 -0.1627E-05 -0.1627E-05  0.1450E+00  0.1450E+00
     11.959 -0.1932E-06 -0.1932E-06  0.1450E+00  0.1450E+00
     12.035 -0.1688E-07 -0.1688E-07  0.1450E+00  0.1450E+00
     12.111 -0.1090E-08 -0.1090E-08  0.1450E+00  0.1450E+00
     12.186 -0.5226E-10 -0.5226E-10  0.1450E+00  0.1450E+00
     12.262 -0.1863E-11 -0.1863E-11  0.1450E+00  0.1450E+00
     12.337 -0.4948E-13 -0.4948E-13  0.1450E+00  0.1450E+00
     12.413 -0.9813E-15 -0.9813E-15  0.1450E+00  0.1450E+00
     12.489 -0.1468E-16 -0.1468E-16  0.1450E+00  0.1450E+00
     12.564  0.0000E+00  0.0000E+00  0.1450E+00  0.1450E+00
     12.640  0.0000E+00  0.0000E+00  0.1450E+00  0.1450E+00
     12.716  0.0000E+00  0.0000E+00  0.1450E+00  0.1450E+00
     12.791  0.0000E+00  0.0000E+00  0.1450E+00  0.1450E+00
     12.867  0.0000E+00  0.0000E+00  0.1450E+00  0.1450E+00
     12.942  0.0000E+00  0.0000E+00  0.1450E+00  0.1450E+00
     13.018  0.0000E+00  0.0000E+00  0.1450E+00  0.1450E+00
     13.094  0.0000E+00  0.0000E+00  0.1450E+00  0.1450E+00
     13.169  0.0000E+00  0.0000E+00  0.1450E+00  0.1450E+00
     13.245  0.0000E+00  0.0000E+00  0.1450E+00  0.1450E+00
