   18   18  800    2
  0.2028145E+02  0.3630000E-09  0.3630000E-09  0.2770500E-08  0.5000000E-15
  1.000000000000000E-004
  CAR 
 unknown system                          
    178      5    116
 
  0.0000000E+00  0.0000000E+00  0.0000000E+00  0.1111111E+00
      1         -7.440201       -7.440201   1.000000   1.000000
      2         -6.922823       -6.922823   1.000000   1.000000
      3         -6.102783       -6.102783   1.000000   1.000000
      4         -5.055563       -5.055563   1.000000   1.000000
      5         -4.523799       -4.523799   1.000000   1.000000
      6         -3.817486       -3.817486   1.000000   1.000000
      7         -3.142886       -3.142886   1.000000   1.000000
      8         -3.022292       -3.022292   1.000000   1.000000
      9         -3.018726       -3.018726   1.000000   1.000000
     10         -2.983637       -2.983637   1.000000   1.000000
     11         -2.958798       -2.958798   1.000000   1.000000
     12         -2.801913       -2.801913   1.000000   1.000000
     13         -2.796344       -2.796344   1.000000   1.000000
     14         -2.576463       -2.576463   1.000000   1.000000
     15         -2.543860       -2.543860   1.000000   1.000000
     16         -2.543846       -2.543846   1.000000   1.000000
     17         -2.472268       -2.472268   1.000000   1.000000
     18         -2.472250       -2.472250   1.000000   1.000000
     19         -2.452556       -2.452556   1.000000   1.000000
     20         -2.409234       -2.409234   1.000000   1.000000
     21         -2.409206       -2.409206   1.000000   1.000000
     22         -2.219264       -2.219264   1.000000   1.000000
     23         -2.154793       -2.154793   1.000000   1.000000
     24         -2.154731       -2.154731   1.000000   1.000000
     25         -2.083692       -2.083692   1.000000   1.000000
     26         -2.046552       -2.046552   1.000000   1.000000
     27         -1.903777       -1.903777   1.000000   1.000000
     28         -1.751451       -1.751451   1.000000   1.000000
     29         -1.751330       -1.751330   1.000000   1.000000
     30         -1.602004       -1.602004   1.000000   1.000000
     31         -1.346362       -1.346362   1.000000   1.000000
     32         -1.260151       -1.260151   1.000000   1.000000
     33         -1.259836       -1.259836   1.000000   1.000000
     34         -1.198971       -1.198971   1.000000   1.000000
     35         -1.170254       -1.170254   1.000000   1.000000
     36         -1.170194       -1.170194   1.000000   1.000000
     37         -1.059672       -1.059672   1.000000   1.000000
     38         -1.059560       -1.059560   1.000000   1.000000
     39         -1.038044       -1.038044   1.000000   1.000000
     40         -0.849876       -0.849876   1.000000   1.000000
     41         -0.849712       -0.849712   1.000000   1.000000
     42         -0.691421       -0.691421   1.000000   1.000000
     43         -0.690672       -0.690672   1.000000   1.000000
     44         -0.560714       -0.560714   1.000000   1.000000
     45         -0.537278       -0.537278   1.000000   1.000000
     46         -0.537010       -0.537010   1.000000   1.000000
     47         -0.522119       -0.522119   1.000000   1.000000
     48         -0.416149       -0.416149   1.000000   1.000000
     49         -0.375138       -0.375138   1.000000   1.000000
     50         -0.344635       -0.344635   1.000000   1.000000
     51         -0.334011       -0.334011   1.000000   1.000000
     52         -0.220870       -0.220870   1.000000   1.000000
     53         -0.217422       -0.217422   1.000000   1.000000
     54         -0.216968       -0.216968   1.000000   1.000000
     55         -0.208549       -0.208549   1.000000   1.000000
     56         -0.208083       -0.208083   1.000000   1.000000
     57         -0.205465       -0.205465   1.000000   1.000000
     58         -0.143847       -0.143847   1.000000   1.000000
     59         -0.142846       -0.142846   1.000000   1.000000
     60         -0.064075       -0.064075   1.000000   1.000000
     61         -0.054874       -0.054874   1.000000   1.000000
     62         -0.047953       -0.047953   1.000000   1.000000
     63          0.084260        0.084260   1.000000   1.000000
     64          0.084407        0.084407   1.000000   1.000000
     65          0.084980        0.084980   1.000000   1.000000
     66          0.125880        0.125880   1.000000   1.000000
     67          0.143302        0.143302   1.000000   1.000000
     68          0.144530        0.144530   1.000000   1.000000
     69          0.219588        0.219588   1.000000   1.000000
     70          0.258472        0.258472   1.000000   1.000000
     71          0.261403        0.261403   1.000000   1.000000
     72          0.266909        0.266909   1.000000   1.000000
     73          0.266926        0.266926   1.000000   1.000000
     74          0.272492        0.272492   1.000000   1.000000
     75          0.272889        0.272889   1.000000   1.000000
     76          0.278642        0.278642   1.000000   1.000000
     77          0.296310        0.296310   1.000000   1.000000
     78          0.341378        0.341378   1.000000   1.000000
     79          0.341962        0.341962   1.000000   1.000000
     80          0.382391        0.382391   1.000000   1.000000
     81          0.384663        0.384663   1.000000   1.000000
     82          0.424273        0.424273   1.000000   1.000000
     83          0.424417        0.424417   1.000000   1.000000
     84          0.431504        0.431504   1.000000   1.000000
     85          0.432174        0.432174   1.000000   1.000000
     86          0.553419        0.553419   1.000000   1.000000
     87          0.593403        0.593403   1.000000   1.000000
     88          1.469288        1.469288   1.001207   1.001207
     89          2.784272        2.784272  -0.000000  -0.000000
     90          3.518778        3.518778  -0.000000  -0.000000
     91          3.521345        3.521345  -0.000000  -0.000000
     92          3.727623        3.727623  -0.000000  -0.000000
     93          4.468641        4.468641  -0.000000  -0.000000
     94          4.478324        4.478324  -0.000000  -0.000000
     95          5.654170        5.654169  -0.000000  -0.000000
     96          5.741618        5.741618  -0.000000  -0.000000
     97          5.848187        5.848186  -0.000000  -0.000000
     98          6.364893        6.364893  -0.000000  -0.000000
     99          7.221641        7.221641  -0.000000  -0.000000
    100          7.258179        7.258179  -0.000000  -0.000000
    101          7.548795        7.548793   0.000000   0.000000
    102          8.814747        8.814747   0.000000   0.000000
    103          8.903155        8.903155   0.000000   0.000000
    104          8.988199        8.988199   0.000000   0.000000
    105          8.990987        8.990987   0.000000   0.000000
    106          9.143830        9.143829   0.000000   0.000000
    107          9.173242        9.173242   0.000000   0.000000
    108          9.179183        9.179183   0.000000   0.000000
    109          9.560813        9.560813   0.000000   0.000000
    110          9.581006        9.581006   0.000000   0.000000
    111          9.744147        9.744147   0.000000   0.000000
    112         10.212124       10.212124   0.000000   0.000000
    113         10.222626       10.222626   0.000000   0.000000
    114         10.520496       10.520495   0.000000   0.000000
    115         10.683154       10.683154   0.000000   0.000000
    116         10.737307       10.737307   0.000000   0.000000
 
  0.3333333E+00  0.0000000E+00  0.0000000E+00  0.2222222E+00
      1         -6.149380       -6.149380   1.000000   1.000000
      2         -5.667917       -5.667917   1.000000   1.000000
      3         -4.924970       -4.924970   1.000000   1.000000
      4         -4.355250       -4.355250   1.000000   1.000000
      5         -3.887306       -3.887306   1.000000   1.000000
      6         -3.429166       -3.429166   1.000000   1.000000
      7         -3.095393       -3.095393   1.000000   1.000000
      8         -2.984582       -2.984582   1.000000   1.000000
      9         -2.638407       -2.638407   1.000000   1.000000
     10         -2.530702       -2.530702   1.000000   1.000000
     11         -2.508056       -2.508056   1.000000   1.000000
     12         -2.365463       -2.365463   1.000000   1.000000
     13         -2.350837       -2.350837   1.000000   1.000000
     14         -2.323970       -2.323970   1.000000   1.000000
     15         -2.253412       -2.253412   1.000000   1.000000
     16         -2.227823       -2.227823   1.000000   1.000000
     17         -2.200916       -2.200916   1.000000   1.000000
     18         -2.192064       -2.192064   1.000000   1.000000
     19         -2.186108       -2.186108   1.000000   1.000000
     20         -2.134214       -2.134214   1.000000   1.000000
     21         -2.127822       -2.127822   1.000000   1.000000
     22         -2.122930       -2.122930   1.000000   1.000000
     23         -2.003030       -2.003030   1.000000   1.000000
     24         -1.968175       -1.968175   1.000000   1.000000
     25         -1.959656       -1.959656   1.000000   1.000000
     26         -1.775570       -1.775570   1.000000   1.000000
     27         -1.737935       -1.737935   1.000000   1.000000
     28         -1.696842       -1.696842   1.000000   1.000000
     29         -1.643587       -1.643587   1.000000   1.000000
     30         -1.605680       -1.605680   1.000000   1.000000
     31         -1.576320       -1.576320   1.000000   1.000000
     32         -1.566142       -1.566142   1.000000   1.000000
     33         -1.461665       -1.461665   1.000000   1.000000
     34         -1.438820       -1.438820   1.000000   1.000000
     35         -1.324823       -1.324823   1.000000   1.000000
     36         -1.261597       -1.261597   1.000000   1.000000
     37         -1.214284       -1.214284   1.000000   1.000000
     38         -1.200926       -1.200926   1.000000   1.000000
     39         -1.108608       -1.108608   1.000000   1.000000
     40         -1.074679       -1.074679   1.000000   1.000000
     41         -1.055552       -1.055552   1.000000   1.000000
     42         -1.019443       -1.019443   1.000000   1.000000
     43         -0.959509       -0.959509   1.000000   1.000000
     44         -0.947745       -0.947745   1.000000   1.000000
     45         -0.914785       -0.914785   1.000000   1.000000
     46         -0.803928       -0.803928   1.000000   1.000000
     47         -0.752411       -0.752411   1.000000   1.000000
     48         -0.706580       -0.706580   1.000000   1.000000
     49         -0.704173       -0.704173   1.000000   1.000000
     50         -0.694895       -0.694895   1.000000   1.000000
     51         -0.522592       -0.522592   1.000000   1.000000
     52         -0.520570       -0.520570   1.000000   1.000000
     53         -0.490541       -0.490541   1.000000   1.000000
     54         -0.489399       -0.489399   1.000000   1.000000
     55         -0.438256       -0.438256   1.000000   1.000000
     56         -0.385602       -0.385602   1.000000   1.000000
     57         -0.382752       -0.382752   1.000000   1.000000
     58         -0.348057       -0.348057   1.000000   1.000000
     59         -0.312570       -0.312570   1.000000   1.000000
     60         -0.303779       -0.303779   1.000000   1.000000
     61         -0.261102       -0.261102   1.000000   1.000000
     62         -0.255244       -0.255244   1.000000   1.000000
     63         -0.215448       -0.215448   1.000000   1.000000
     64         -0.191085       -0.191085   1.000000   1.000000
     65         -0.150237       -0.150237   1.000000   1.000000
     66         -0.131994       -0.131994   1.000000   1.000000
     67         -0.106076       -0.106076   1.000000   1.000000
     68         -0.102078       -0.102078   1.000000   1.000000
     69         -0.093593       -0.093593   1.000000   1.000000
     70         -0.076906       -0.076906   1.000000   1.000000
     71         -0.072109       -0.072109   1.000000   1.000000
     72         -0.067768       -0.067768   1.000000   1.000000
     73         -0.057729       -0.057729   1.000000   1.000000
     74          0.004318        0.004318   1.000000   1.000000
     75          0.008567        0.008567   1.000000   1.000000
     76          0.032170        0.032170   1.000000   1.000000
     77          0.063019        0.063019   1.000000   1.000000
     78          0.074809        0.074809   1.000000   1.000000
     79          0.121567        0.121567   1.000000   1.000000
     80          0.152433        0.152433   1.000000   1.000000
     81          0.260055        0.260055   1.000000   1.000000
     82          0.274858        0.274858   1.000000   1.000000
     83          0.287802        0.287802   1.000000   1.000000
     84          0.411231        0.411231   1.000000   1.000000
     85          0.430086        0.430086   1.000000   1.000000
     86          0.446986        0.446986   1.000000   1.000000
     87          0.916808        0.916808   1.000000   1.000000
     88          0.934403        0.934403   1.000000   1.000000
     89          1.689707        1.689707   1.032179   1.032179
     90          1.851906        1.851906   0.909739   0.909739
     91          2.622539        2.622539  -0.000018  -0.000018
     92          3.216131        3.216131  -0.000000  -0.000000
     93          3.777183        3.777183  -0.000000  -0.000000
     94          4.627930        4.627930  -0.000000  -0.000000
     95          5.173385        5.173385  -0.000000  -0.000000
     96          5.849851        5.849851  -0.000000  -0.000000
     97          5.961982        5.961982  -0.000000  -0.000000
     98          6.400339        6.400339  -0.000000  -0.000000
     99          6.647014        6.647014  -0.000000  -0.000000
    100          7.070827        7.070826  -0.000000  -0.000000
    101          7.582758        7.582757   0.000000   0.000000
    102          7.686920        7.686920   0.000000   0.000000
    103          8.285906        8.285906   0.000000   0.000000
    104          8.811716        8.811715   0.000000   0.000000
    105          8.935184        8.935184   0.000000   0.000000
    106          9.085661        9.085661   0.000000   0.000000
    107          9.569142        9.569142   0.000000   0.000000
    108          9.751442        9.751442   0.000000   0.000000
    109         10.068196       10.068195   0.000000   0.000000
    110         10.380108       10.380107   0.000000   0.000000
    111         10.433610       10.433609   0.000000   0.000000
    112         10.549110       10.549110   0.000000   0.000000
    113         10.597292       10.597291   0.000000   0.000000
    114         11.125639       11.125639   0.000000   0.000000
    115         11.135050       11.135049   0.000000   0.000000
    116         11.244843       11.244842   0.000000   0.000000
 
  0.0000000E+00  0.3333333E+00  0.0000000E+00  0.2222222E+00
      1         -6.149375       -6.149375   1.000000   1.000000
      2         -5.667873       -5.667873   1.000000   1.000000
      3         -4.924484       -4.924484   1.000000   1.000000
      4         -4.343142       -4.343142   1.000000   1.000000
      5         -3.886069       -3.886069   1.000000   1.000000
      6         -3.429169       -3.429169   1.000000   1.000000
      7         -3.095401       -3.095401   1.000000   1.000000
      8         -2.984463       -2.984463   1.000000   1.000000
      9         -2.638393       -2.638393   1.000000   1.000000
     10         -2.530693       -2.530693   1.000000   1.000000
     11         -2.508035       -2.508035   1.000000   1.000000
     12         -2.365485       -2.365485   1.000000   1.000000
     13         -2.350831       -2.350831   1.000000   1.000000
     14         -2.323947       -2.323947   1.000000   1.000000
     15         -2.253414       -2.253414   1.000000   1.000000
     16         -2.227819       -2.227819   1.000000   1.000000
     17         -2.200914       -2.200914   1.000000   1.000000
     18         -2.192076       -2.192076   1.000000   1.000000
     19         -2.186106       -2.186106   1.000000   1.000000
     20         -2.134200       -2.134200   1.000000   1.000000
     21         -2.127828       -2.127828   1.000000   1.000000
     22         -2.122926       -2.122926   1.000000   1.000000
     23         -2.003016       -2.003016   1.000000   1.000000
     24         -1.968185       -1.968185   1.000000   1.000000
     25         -1.959611       -1.959611   1.000000   1.000000
     26         -1.775573       -1.775573   1.000000   1.000000
     27         -1.737922       -1.737922   1.000000   1.000000
     28         -1.696789       -1.696789   1.000000   1.000000
     29         -1.643582       -1.643582   1.000000   1.000000
     30         -1.605733       -1.605733   1.000000   1.000000
     31         -1.576322       -1.576322   1.000000   1.000000
     32         -1.566138       -1.566138   1.000000   1.000000
     33         -1.461815       -1.461815   1.000000   1.000000
     34         -1.438767       -1.438767   1.000000   1.000000
     35         -1.324824       -1.324824   1.000000   1.000000
     36         -1.261580       -1.261580   1.000000   1.000000
     37         -1.214245       -1.214245   1.000000   1.000000
     38         -1.201165       -1.201165   1.000000   1.000000
     39         -1.108600       -1.108600   1.000000   1.000000
     40         -1.074717       -1.074717   1.000000   1.000000
     41         -1.055532       -1.055532   1.000000   1.000000
     42         -1.019464       -1.019464   1.000000   1.000000
     43         -0.959533       -0.959533   1.000000   1.000000
     44         -0.947647       -0.947647   1.000000   1.000000
     45         -0.914784       -0.914784   1.000000   1.000000
     46         -0.804265       -0.804265   1.000000   1.000000
     47         -0.752529       -0.752529   1.000000   1.000000
     48         -0.706573       -0.706573   1.000000   1.000000
     49         -0.704296       -0.704296   1.000000   1.000000
     50         -0.694882       -0.694882   1.000000   1.000000
     51         -0.522688       -0.522688   1.000000   1.000000
     52         -0.520579       -0.520579   1.000000   1.000000
     53         -0.490976       -0.490976   1.000000   1.000000
     54         -0.489214       -0.489214   1.000000   1.000000
     55         -0.438346       -0.438346   1.000000   1.000000
     56         -0.385587       -0.385587   1.000000   1.000000
     57         -0.382771       -0.382771   1.000000   1.000000
     58         -0.347514       -0.347514   1.000000   1.000000
     59         -0.312569       -0.312569   1.000000   1.000000
     60         -0.303781       -0.303781   1.000000   1.000000
     61         -0.261143       -0.261143   1.000000   1.000000
     62         -0.255296       -0.255296   1.000000   1.000000
     63         -0.215411       -0.215411   1.000000   1.000000
     64         -0.191465       -0.191465   1.000000   1.000000
     65         -0.150319       -0.150319   1.000000   1.000000
     66         -0.132024       -0.132024   1.000000   1.000000
     67         -0.105992       -0.105992   1.000000   1.000000
     68         -0.102279       -0.102279   1.000000   1.000000
     69         -0.093596       -0.093596   1.000000   1.000000
     70         -0.076916       -0.076916   1.000000   1.000000
     71         -0.072126       -0.072126   1.000000   1.000000
     72         -0.067785       -0.067785   1.000000   1.000000
     73         -0.057794       -0.057794   1.000000   1.000000
     74          0.004303        0.004303   1.000000   1.000000
     75          0.008560        0.008560   1.000000   1.000000
     76          0.032186        0.032186   1.000000   1.000000
     77          0.063133        0.063133   1.000000   1.000000
     78          0.074739        0.074739   1.000000   1.000000
     79          0.121463        0.121463   1.000000   1.000000
     80          0.152474        0.152474   1.000000   1.000000
     81          0.260177        0.260177   1.000000   1.000000
     82          0.274513        0.274513   1.000000   1.000000
     83          0.287784        0.287784   1.000000   1.000000
     84          0.411121        0.411121   1.000000   1.000000
     85          0.430150        0.430150   1.000000   1.000000
     86          0.446956        0.446956   1.000000   1.000000
     87          0.916300        0.916300   1.000000   1.000000
     88          0.934197        0.934197   1.000000   1.000000
     89          1.688924        1.688924   1.032040   1.032040
     90          1.851233        1.851233   0.911320   0.911320
     91          2.621266        2.621266  -0.000019  -0.000019
     92          3.213021        3.213021  -0.000000  -0.000000
     93          3.774466        3.774466  -0.000000  -0.000000
     94          4.616441        4.616441  -0.000000  -0.000000
     95          5.163837        5.163837  -0.000000  -0.000000
     96          5.827700        5.827700  -0.000000  -0.000000
     97          5.962154        5.962154  -0.000000  -0.000000
     98          6.354505        6.354504  -0.000000  -0.000000
     99          6.646543        6.646543  -0.000000  -0.000000
    100          7.063517        7.063516  -0.000000  -0.000000
    101          7.564917        7.564916   0.000000   0.000000
    102          7.687254        7.687254   0.000000   0.000000
    103          8.215142        8.215141   0.000000   0.000000
    104          8.778117        8.778117   0.000000   0.000000
    105          8.954156        8.954156   0.000000   0.000000
    106          9.081703        9.081702   0.000000   0.000000
    107          9.569494        9.569494   0.000000   0.000000
    108          9.762613        9.762613   0.000000   0.000000
    109         10.130090       10.130089   0.000000   0.000000
    110         10.390928       10.390928   0.000000   0.000000
    111         10.432794       10.432794   0.000000   0.000000
    112         10.549072       10.549072   0.000000   0.000000
    113         10.604001       10.604001   0.000000   0.000000
    114         11.127079       11.127079   0.000000   0.000000
    115         11.153324       11.153323   0.000000   0.000000
    116         11.236912       11.236911   0.000000   0.000000
 
  0.3333333E+00  0.3333333E+00  0.0000000E+00  0.2222222E+00
      1         -4.988175       -4.988175   1.000000   1.000000
      2         -4.608555       -4.608555   1.000000   1.000000
      3         -4.168168       -4.168168   1.000000   1.000000
      4         -4.019239       -4.019239   1.000000   1.000000
      5         -3.453146       -3.453146   1.000000   1.000000
      6         -2.956817       -2.956817   1.000000   1.000000
      7         -2.865805       -2.865805   1.000000   1.000000
      8         -2.864764       -2.864764   1.000000   1.000000
      9         -2.817254       -2.817254   1.000000   1.000000
     10         -2.816644       -2.816644   1.000000   1.000000
     11         -2.774530       -2.774530   1.000000   1.000000
     12         -2.758572       -2.758572   1.000000   1.000000
     13         -2.569174       -2.569174   1.000000   1.000000
     14         -2.382145       -2.382145   1.000000   1.000000
     15         -2.358694       -2.358694   1.000000   1.000000
     16         -2.310762       -2.310762   1.000000   1.000000
     17         -2.215728       -2.215728   1.000000   1.000000
     18         -2.018497       -2.018497   1.000000   1.000000
     19         -1.842571       -1.842571   1.000000   1.000000
     20         -1.841843       -1.841843   1.000000   1.000000
     21         -1.816196       -1.816196   1.000000   1.000000
     22         -1.706466       -1.706466   1.000000   1.000000
     23         -1.690790       -1.690790   1.000000   1.000000
     24         -1.570071       -1.570071   1.000000   1.000000
     25         -1.569538       -1.569538   1.000000   1.000000
     26         -1.512144       -1.512144   1.000000   1.000000
     27         -1.508761       -1.508761   1.000000   1.000000
     28         -1.386910       -1.386910   1.000000   1.000000
     29         -1.385281       -1.385281   1.000000   1.000000
     30         -1.346805       -1.346805   1.000000   1.000000
     31         -1.337640       -1.337640   1.000000   1.000000
     32         -1.332604       -1.332604   1.000000   1.000000
     33         -1.231181       -1.231181   1.000000   1.000000
     34         -1.227770       -1.227770   1.000000   1.000000
     35         -1.184538       -1.184538   1.000000   1.000000
     36         -1.137976       -1.137976   1.000000   1.000000
     37         -1.134397       -1.134397   1.000000   1.000000
     38         -1.131941       -1.131941   1.000000   1.000000
     39         -1.114871       -1.114871   1.000000   1.000000
     40         -1.066017       -1.066017   1.000000   1.000000
     41         -1.017485       -1.017485   1.000000   1.000000
     42         -1.010434       -1.010434   1.000000   1.000000
     43         -1.002579       -1.002579   1.000000   1.000000
     44         -0.993814       -0.993814   1.000000   1.000000
     45         -0.991228       -0.991228   1.000000   1.000000
     46         -0.970629       -0.970629   1.000000   1.000000
     47         -0.916905       -0.916905   1.000000   1.000000
     48         -0.906251       -0.906251   1.000000   1.000000
     49         -0.887414       -0.887414   1.000000   1.000000
     50         -0.819338       -0.819338   1.000000   1.000000
     51         -0.804390       -0.804390   1.000000   1.000000
     52         -0.791081       -0.791081   1.000000   1.000000
     53         -0.786835       -0.786835   1.000000   1.000000
     54         -0.762702       -0.762702   1.000000   1.000000
     55         -0.746480       -0.746480   1.000000   1.000000
     56         -0.644248       -0.644248   1.000000   1.000000
     57         -0.641918       -0.641918   1.000000   1.000000
     58         -0.592718       -0.592718   1.000000   1.000000
     59         -0.553761       -0.553761   1.000000   1.000000
     60         -0.519466       -0.519466   1.000000   1.000000
     61         -0.496265       -0.496265   1.000000   1.000000
     62         -0.448531       -0.448531   1.000000   1.000000
     63         -0.441275       -0.441275   1.000000   1.000000
     64         -0.293201       -0.293201   1.000000   1.000000
     65         -0.185247       -0.185247   1.000000   1.000000
     66         -0.172020       -0.172020   1.000000   1.000000
     67         -0.142273       -0.142273   1.000000   1.000000
     68         -0.031453       -0.031453   1.000000   1.000000
     69         -0.010268       -0.010268   1.000000   1.000000
     70         -0.002986       -0.002986   1.000000   1.000000
     71          0.046001        0.046001   1.000000   1.000000
     72          0.067170        0.067170   1.000000   1.000000
     73          0.158660        0.158660   1.000000   1.000000
     74          0.162609        0.162609   1.000000   1.000000
     75          0.164509        0.164509   1.000000   1.000000
     76          0.179798        0.179798   1.000000   1.000000
     77          0.197200        0.197200   1.000000   1.000000
     78          0.203110        0.203110   1.000000   1.000000
     79          0.256805        0.256805   1.000000   1.000000
     80          0.282582        0.282582   1.000000   1.000000
     81          0.284662        0.284662   1.000000   1.000000
     82          0.295934        0.295934   1.000000   1.000000
     83          0.306040        0.306040   1.000000   1.000000
     84          0.335209        0.335209   1.000000   1.000000
     85          0.348202        0.348202   1.000000   1.000000
     86          1.059762        1.059762   1.000000   1.000000
     87          1.828221        1.828221   0.958501   0.958501
     88          1.829381        1.829381   0.956438   0.956438
     89          2.043136        2.043136   0.203717   0.203717
     90          2.045152        2.045152   0.197075   0.197075
     91          2.420881        2.420881  -0.003073  -0.003073
     92          2.425587        2.425587  -0.002801  -0.002801
     93          2.436806        2.436806  -0.002233  -0.002233
     94          2.841576        2.841576  -0.000000  -0.000000
     95          2.880700        2.880700  -0.000000  -0.000000
     96          3.947769        3.947769  -0.000000  -0.000000
     97          4.925699        4.925699  -0.000000  -0.000000
     98          5.329301        5.329301  -0.000000  -0.000000
     99          5.544498        5.544498  -0.000000  -0.000000
    100          5.897477        5.897477  -0.000000  -0.000000
    101          5.951871        5.951871  -0.000000  -0.000000
    102          6.819689        6.819689  -0.000000  -0.000000
    103          6.932143        6.932143  -0.000000  -0.000000
    104          7.022440        7.022440  -0.000000  -0.000000
    105          7.399005        7.399005  -0.000000  -0.000000
    106          7.649630        7.649630   0.000000   0.000000
    107          7.995640        7.995640   0.000000   0.000000
    108          8.294140        8.294140   0.000000   0.000000
    109          8.563748        8.563748   0.000000   0.000000
    110          8.837787        8.837786   0.000000   0.000000
    111          9.113707        9.113707   0.000000   0.000000
    112          9.232318        9.232318   0.000000   0.000000
    113          9.718851        9.718850   0.000000   0.000000