       N       E                     dE             d eps       ncg     rms          rms(c)
DAV:   1     0.166691281324E+04    0.16669E+04   -0.64727E+04  2320   0.188E+03
DAV:   2     0.198585953360E+03   -0.14683E+04   -0.14065E+04  2320   0.428E+02
DAV:   3    -0.533749770655E+02   -0.25196E+03   -0.23037E+03  2336   0.217E+02
DAV:   4    -0.689378048137E+02   -0.15563E+02   -0.15208E+02  2648   0.757E+01
DAV:   5    -0.692805714562E+02   -0.34277E+00   -0.34205E+00  2680   0.104E+01    0.366E+01
DAV:   6    -0.579408077908E+02    0.11340E+02   -0.16255E+02  2620   0.122E+02    0.187E+01
DAV:   7    -0.517375570897E+02    0.62033E+01   -0.37963E+01  2656   0.767E+01    0.962E+00
DAV:   8    -0.513802022384E+02    0.35735E+00   -0.10143E+01  2784   0.611E+01    0.977E+00
DAV:   9    -0.509490494367E+02    0.43115E+00   -0.60325E+00  3124   0.562E+01    0.868E+00
DAV:  10    -0.507867907897E+02    0.16226E+00   -0.27773E+00  3976   0.324E+01    0.706E+00
DAV:  11    -0.534059321073E+02   -0.26191E+01   -0.80087E+00  3160   0.577E+01    0.902E+00
DAV:  12    -0.524377746710E+02    0.96816E+00   -0.85641E+00  3576   0.465E+01    0.636E+00
DAV:  13    -0.536416362125E+02   -0.12039E+01   -0.26258E+00  3576   0.302E+01    0.576E+00
DAV:  14    -0.561203355833E+02   -0.24787E+01   -0.16773E+00  3360   0.223E+01    0.389E+00
DAV:  15    -0.590041813440E+02   -0.28838E+01   -0.30118E+00  2916   0.294E+01    0.306E+00
DAV:  16    -0.597884369233E+02   -0.78426E+00   -0.13247E+00  3336   0.184E+01    0.181E+00
DAV:  17    -0.604054631362E+02   -0.61703E+00   -0.69694E-01  3264   0.924E+00    0.135E+00
DAV:  18    -0.607928039731E+02   -0.38734E+00   -0.36924E-01  2800   0.695E+00    0.101E+00
DAV:  19    -0.611115142447E+02   -0.31871E+00   -0.20879E-01  2784   0.451E+00    0.884E-01
DAV:  20    -0.613996253861E+02   -0.28811E+00   -0.11626E-01  2824   0.494E+00    0.820E-01
DAV:  21    -0.616964461868E+02   -0.29682E+00   -0.11268E-01  2828   0.372E+00    0.640E-01
DAV:  22    -0.619489702407E+02   -0.25252E+00   -0.69618E-02  3160   0.296E+00    0.561E-01
DAV:  23    -0.621533966743E+02   -0.20443E+00   -0.40994E-02  2848   0.266E+00    0.426E-01
DAV:  24    -0.623966983194E+02   -0.24330E+00   -0.41055E-02  2972   0.223E+00    0.321E-01
DAV:  25    -0.625675190508E+02   -0.17082E+00   -0.17374E-02  2940   0.200E+00    0.271E-01
DAV:  26    -0.626915528134E+02   -0.12403E+00   -0.76040E-03  2720   0.128E+00    0.141E-01
DAV:  27    -0.627446285415E+02   -0.53076E-01   -0.25418E-03  2604   0.988E-01    0.113E-01
DAV:  28    -0.627782126263E+02   -0.33584E-01   -0.15332E-03  2664   0.707E-01    0.799E-02
DAV:  29    -0.627866195560E+02   -0.84069E-02   -0.48723E-04  1876   0.446E-01    0.515E-02
DAV:  30    -0.627891061905E+02   -0.24866E-02   -0.25097E-04  1708   0.292E-01    0.315E-02
DAV:  31    -0.627897752993E+02   -0.66911E-03   -0.15735E-04  1556   0.163E-01    0.280E-02
DAV:  32    -0.627896696193E+02    0.10568E-03   -0.66203E-05  1588   0.112E-01
   1 F= -.69721878E+02 E0= -.69710250E+02  d E =-.697219E+02  mag=     0.0031
       N       E                     dE             d eps       ncg     rms          rms(c)
DAV:   1    -0.627707937386E+02    0.18982E-01   -0.10084E+01  2468   0.900E+00    0.753E-01
DAV:   2    -0.627899354978E+02   -0.19142E-01   -0.23101E-01  3432   0.470E+00    0.815E-01
DAV:   3    -0.628170519500E+02   -0.27116E-01   -0.15285E-01  2904   0.947E+00    0.133E+00
DAV:   4    -0.627850959071E+02    0.31956E-01   -0.10379E-01  3120   0.771E+00    0.494E-01
DAV:   5    -0.627853872344E+02   -0.29133E-03   -0.22622E-02  3040   0.503E+00    0.457E-01
DAV:   6    -0.627818362672E+02    0.35510E-02   -0.17986E-02  3616   0.434E+00    0.243E-01
DAV:   7    -0.627810207564E+02    0.81551E-03   -0.50938E-03  3528   0.177E+00    0.703E-02
DAV:   8    -0.627811243314E+02   -0.10358E-03   -0.15959E-03  2536   0.701E-01
   2 F= -.69735773E+02 E0= -.69723368E+02  d E =-.138946E-01  mag=     0.0022
       N       E                     dE             d eps       ncg     rms          rms(c)
DAV:   1    -0.628118727687E+02   -0.30852E-01   -0.22926E+00  2468   0.434E+00    0.309E-01
DAV:   2    -0.628207900667E+02   -0.89173E-02   -0.64917E-02  3960   0.298E+00    0.558E-01
DAV:   3    -0.628172181000E+02    0.35720E-02   -0.24211E-02  3720   0.344E+00    0.307E-01
DAV:   4    -0.628165654144E+02    0.65269E-03   -0.65498E-03  2696   0.218E+00    0.231E-01
DAV:   5    -0.628167584117E+02   -0.19300E-03   -0.52294E-03  3040   0.247E+00    0.213E-01
DAV:   6    -0.628160163259E+02    0.74209E-03   -0.36625E-03  2660   0.212E+00    0.117E-01
DAV:   7    -0.628158328886E+02    0.18344E-03   -0.86324E-04  2304   0.800E-01
   3 F= -.69754260E+02 E0= -.69742200E+02  d E =-.323818E-01  mag=     0.0017
       N       E                     dE             d eps       ncg     rms          rms(c)
DAV:   1    -0.628249959865E+02   -0.89797E-02   -0.64298E+00  2472   0.743E+00    0.230E-01
DAV:   2    -0.628398204856E+02   -0.14824E-01   -0.12877E-01  3592   0.345E+00    0.516E-01
DAV:   3    -0.628392275993E+02    0.59289E-03   -0.34250E-02  2848   0.417E+00    0.432E-01
DAV:   4    -0.628363624406E+02    0.28652E-02   -0.94463E-03  2596   0.222E+00    0.163E-01
DAV:   5    -0.628363402360E+02    0.22205E-04   -0.24183E-03  2692   0.673E-01    0.142E-01
DAV:   6    -0.628363119823E+02    0.28254E-04   -0.16259E-03  2476   0.957E-01
   4 F= -.69779110E+02 E0= -.69767270E+02  d E =-.248497E-01  mag=     0.0013
       N       E                     dE             d eps       ncg     rms          rms(c)
DAV:   1    -0.627748689919E+02    0.61471E-01   -0.39107E+01  2504   0.189E+01    0.612E-01
DAV:   2    -0.628970256857E+02   -0.12216E+00   -0.91960E-01  3912   0.110E+01    0.166E+00
DAV:   3    -0.628708867506E+02    0.26139E-01   -0.28535E-01  3336   0.117E+01    0.102E+00
DAV:   4    -0.628524218756E+02    0.18465E-01   -0.75309E-02  3024   0.619E+00    0.489E-01
DAV:   5    -0.628524799625E+02   -0.58087E-04   -0.17555E-02  3128   0.293E+00    0.411E-01
DAV:   6    -0.628516491557E+02    0.83081E-03   -0.13206E-02  2928   0.282E+00    0.346E-01
DAV:   7    -0.628502072309E+02    0.14419E-02   -0.87034E-03  2876   0.215E+00    0.158E-01
DAV:   8    -0.628502063476E+02    0.88333E-06   -0.41369E-03  3368   0.143E+00    0.961E-02
DAV:   9    -0.628501628283E+02    0.43519E-04   -0.13900E-03  2328   0.703E-01
   5 F= -.69804202E+02 E0= -.69791107E+02  d E =-.499420E-01  mag=     0.0009
       N       E                     dE             d eps       ncg     rms          rms(c)
DAV:   1    -0.628499400444E+02    0.26630E-03   -0.76158E+00  2404   0.836E+00    0.270E-01
DAV:   2    -0.628666351799E+02   -0.16695E-01   -0.17206E-01  3320   0.277E+00    0.363E-01
DAV:   3    -0.628693681136E+02   -0.27329E-02   -0.19805E-02  2784   0.326E+00    0.511E-01
DAV:   4    -0.628657034246E+02    0.36647E-02   -0.12995E-02  2664   0.257E+00    0.218E-01
DAV:   5    -0.628657211196E+02   -0.17695E-04   -0.26384E-03  2832   0.138E+00    0.219E-01
DAV:   6    -0.628658213116E+02   -0.10019E-03   -0.35120E-03  2920   0.203E+00    0.218E-01
DAV:   7    -0.628649737116E+02    0.84760E-03   -0.33034E-03  3072   0.155E+00    0.717E-02
DAV:   8    -0.628649564362E+02    0.17275E-04   -0.81567E-04  2068   0.575E-01
   6 F= -.69825352E+02 E0= -.69811898E+02  d E =-.211493E-01  mag=     0.0007
       N       E                     dE             d eps       ncg     rms          rms(c)
DAV:   1    -0.628337426291E+02    0.31231E-01   -0.16721E+01  2404   0.124E+01    0.417E-01
DAV:   2    -0.628711330646E+02   -0.37390E-01   -0.38421E-01  3320   0.419E+00    0.573E-01
DAV:   3    -0.628776165818E+02   -0.64835E-02   -0.49370E-02  2800   0.518E+00    0.787E-01
DAV:   4    -0.628685835246E+02    0.90331E-02   -0.30473E-02  2808   0.399E+00    0.330E-01
DAV:   5    -0.628685925127E+02   -0.89881E-05   -0.65779E-03  3620   0.216E+00    0.330E-01
DAV:   6    -0.628685340980E+02    0.58415E-04   -0.79206E-03  3436   0.300E+00    0.309E-01
DAV:   7    -0.628668515355E+02    0.16826E-02   -0.75482E-03  3924   0.230E+00    0.104E-01
DAV:   8    -0.628668103520E+02    0.41183E-04   -0.17802E-03  2600   0.906E-01
   7 F= -.69837484E+02 E0= -.69823627E+02  d E =-.332814E-01  mag=     0.0005
       N       E                     dE             d eps       ncg     rms          rms(c)
DAV:   1    -0.628701554983E+02   -0.33040E-02   -0.88686E-01  2444   0.286E+00    0.108E-01
DAV:   2    -0.628721712600E+02   -0.20158E-02   -0.19534E-02  3456   0.106E+00    0.156E-01
DAV:   3    -0.628724126648E+02   -0.24140E-03   -0.39745E-03  2584   0.142E+00    0.181E-01
DAV:   4    -0.628719333392E+02    0.47933E-03   -0.13879E-03  1832   0.924E-01    0.799E-02
DAV:   5    -0.628719568879E+02   -0.23549E-04   -0.43768E-04  1488   0.705E-01
   8 F= -.69845549E+02 E0= -.69831270E+02  d E =-.806560E-02  mag=     0.0004
       N       E                     dE             d eps       ncg     rms          rms(c)
DAV:   1    -0.628620103784E+02    0.99230E-02   -0.79879E+00  2448   0.847E+00    0.328E-01
DAV:   2    -0.628784253601E+02   -0.16415E-01   -0.17109E-01  3308   0.286E+00    0.390E-01
DAV:   3    -0.628813952249E+02   -0.29699E-02   -0.23982E-02  2840   0.365E+00    0.544E-01
DAV:   4    -0.628780834126E+02    0.33118E-02   -0.17397E-02  2736   0.313E+00    0.312E-01
DAV:   5    -0.628769761984E+02    0.11072E-02   -0.40794E-03  2696   0.200E+00    0.213E-01
DAV:   6    -0.628768077326E+02    0.16847E-03   -0.38609E-03  3664   0.177E+00    0.187E-01
DAV:   7    -0.628763743948E+02    0.43334E-03   -0.24772E-03  2752   0.139E+00    0.649E-02
DAV:   8    -0.628763539467E+02    0.20448E-04   -0.60038E-04  1792   0.364E-01
   9 F= -.69859132E+02 E0= -.69844964E+02  d E =-.216483E-01  mag=     0.0003
       N       E                     dE             d eps       ncg     rms          rms(c)
DAV:   1    -0.628724544824E+02    0.39199E-02   -0.97184E-01  2464   0.294E+00    0.106E-01
DAV:   2    -0.628745305044E+02   -0.20760E-02   -0.20029E-02  3304   0.973E-01    0.159E-01
DAV:   3    -0.628746249399E+02   -0.94436E-04   -0.28814E-03  2600   0.123E+00    0.152E-01
DAV:   4    -0.628742919553E+02    0.33298E-03   -0.13971E-03  1640   0.821E-01    0.756E-02
DAV:   5    -0.628742952087E+02   -0.32534E-05   -0.46601E-04  1488   0.607E-01
  10 F= -.69860474E+02 E0= -.69846642E+02  d E =-.229906E-01  mag=     0.0002
       N       E                     dE             d eps       ncg     rms          rms(c)
DAV:   1    -0.628781425040E+02   -0.38505E-02   -0.46017E-01  2396   0.217E+00    0.104E-01
DAV:   2    -0.628809776767E+02   -0.28352E-02   -0.12552E-02  4244   0.256E+00    0.298E-01
DAV:   3    -0.628799438831E+02    0.10338E-02   -0.93992E-03  3512   0.252E+00    0.251E-01
DAV:   4    -0.628788536748E+02    0.10902E-02   -0.34950E-03  2224   0.138E+00    0.793E-02
DAV:   5    -0.628788484279E+02    0.52469E-05   -0.69095E-04  1840   0.462E-01
  11 F= -.69866567E+02 E0= -.69852589E+02  d E =-.609313E-02  mag=     0.0002
       N       E                     dE             d eps       ncg     rms          rms(c)
DAV:   1    -0.628831763869E+02   -0.43227E-02   -0.41405E+00  2384   0.614E+00    0.233E-01
DAV:   2    -0.628928462762E+02   -0.96699E-02   -0.89700E-02  3520   0.272E+00    0.402E-01
DAV:   3    -0.628923464331E+02    0.49984E-03   -0.16285E-02  3104   0.286E+00    0.335E-01
DAV:   4    -0.628912256336E+02    0.11208E-02   -0.63142E-03  2760   0.197E+00    0.214E-01
DAV:   5    -0.628907580089E+02    0.46762E-03   -0.20086E-03  2640   0.128E+00    0.150E-01
DAV:   6    -0.628906927069E+02    0.65302E-04   -0.22588E-03  2908   0.108E+00    0.117E-01
DAV:   7    -0.628905284284E+02    0.16428E-03   -0.16664E-03  2508   0.100E+00
  12 F= -.69882931E+02 E0= -.69869196E+02  d E =-.224566E-01  mag=     0.0002
       N       E                     dE             d eps       ncg     rms          rms(c)
DAV:   1    -0.628728031655E+02    0.17890E-01   -0.16638E+01  2384   0.123E+01    0.459E-01
DAV:   2    -0.629228457179E+02   -0.50043E-01   -0.39246E-01  3744   0.693E+00    0.108E+00
DAV:   3    -0.629121523232E+02    0.10693E-01   -0.90993E-02  3936   0.672E+00    0.655E-01
DAV:   4    -0.629070232743E+02    0.51290E-02   -0.24356E-02  2952   0.399E+00    0.422E-01
DAV:   5    -0.629053378042E+02    0.16855E-02   -0.78811E-03  2816   0.239E+00    0.301E-01
DAV:   6    -0.629048585483E+02    0.47926E-03   -0.84148E-03  2864   0.181E+00    0.240E-01
DAV:   7    -0.629045253598E+02    0.33319E-03   -0.65692E-03  2696   0.185E+00    0.120E-01
DAV:   8    -0.629043905088E+02    0.13485E-03   -0.16578E-03  2740   0.810E-01
  13 F= -.69906388E+02 E0= -.69893556E+02  d E =-.459142E-01  mag=     0.0001
       N       E                     dE             d eps       ncg     rms          rms(c)
DAV:   1    -0.627586941481E+02    0.14583E+00   -0.67101E+01  2384   0.254E+01    0.924E-01
DAV:   2    -0.629646542493E+02   -0.20596E+00   -0.16798E+00  3824   0.140E+01    0.208E+00
DAV:   3    -0.629317401717E+02    0.32914E-01   -0.32344E-01  3872   0.133E+01    0.141E+00
DAV:   4    -0.629049971705E+02    0.26743E-01   -0.93627E-02  3088   0.794E+00    0.843E-01
DAV:   5    -0.628981828252E+02    0.68143E-02   -0.28848E-02  3008   0.453E+00    0.625E-01
DAV:   6    -0.628961448231E+02    0.20380E-02   -0.29273E-02  2792   0.362E+00    0.538E-01
DAV:   7    -0.628941835175E+02    0.19613E-02   -0.30214E-02  2800   0.397E+00    0.254E-01
DAV:   8    -0.628935075745E+02    0.67594E-03   -0.92105E-03  3800   0.186E+00    0.124E-01
DAV:   9    -0.628934033770E+02    0.10420E-03   -0.14436E-03  2576   0.784E-01
  14 F= -.69915042E+02 E0= -.69903759E+02  d E =-.545677E-01  mag=     0.0001
       N       E                     dE             d eps       ncg     rms          rms(c)
DAV:   1    -0.628859498299E+02    0.75577E-02   -0.96318E+00  2376   0.942E+00    0.327E-01
DAV:   2    -0.629095947064E+02   -0.23645E-01   -0.21711E-01  3576   0.394E+00    0.574E-01
DAV:   3    -0.629073219517E+02    0.22728E-02   -0.39061E-02  2784   0.430E+00    0.483E-01
DAV:   4    -0.629052942365E+02    0.20277E-02   -0.12402E-02  2848   0.259E+00    0.301E-01
DAV:   5    -0.629048164263E+02    0.47781E-03   -0.45189E-03  2888   0.172E+00    0.252E-01
DAV:   6    -0.629042898660E+02    0.52656E-03   -0.40962E-03  3100   0.161E+00    0.193E-01
DAV:   7    -0.629038582827E+02    0.43158E-03   -0.28219E-03  2656   0.152E+00    0.744E-02
DAV:   8    -0.629038207397E+02    0.37543E-04   -0.71341E-04  2000   0.559E-01
  15 F= -.69917949E+02 E0= -.69905943E+02  d E =-.574743E-01  mag=     0.0001
       N       E                     dE             d eps       ncg     rms          rms(c)
DAV:   1    -0.629078265291E+02   -0.39682E-02   -0.34154E+00  2352   0.554E+00    0.232E-01
DAV:   2    -0.629163042068E+02   -0.84777E-02   -0.76413E-02  3456   0.259E+00    0.415E-01
DAV:   3    -0.629152106266E+02    0.10936E-02   -0.14881E-02  3408   0.273E+00    0.295E-01
DAV:   4    -0.629143782102E+02    0.83242E-03   -0.55902E-03  2752   0.181E+00    0.208E-01
DAV:   5    -0.629139373183E+02    0.44089E-03   -0.19389E-03  2672   0.133E+00    0.145E-01
DAV:   6    -0.629137584369E+02    0.17888E-03   -0.17459E-03  2704   0.105E+00
  16 F= -.69930577E+02 E0= -.69918968E+02  d E =-.126284E-01  mag=     0.0000
       N       E                     dE             d eps       ncg     rms          rms(c)
DAV:   1    -0.629026309373E+02    0.11306E-01   -0.72361E+00  2344   0.813E+00    0.349E-01
DAV:   2    -0.629294287044E+02   -0.26798E-01   -0.17975E-01  3824   0.525E+00    0.891E-01
DAV:   3    -0.629181361325E+02    0.11293E-01   -0.54366E-02  4096   0.506E+00    0.367E-01
DAV:   4    -0.629172428119E+02    0.89332E-03   -0.99498E-03  2848   0.237E+00    0.300E-01
DAV:   5    -0.629165530713E+02    0.68974E-03   -0.55321E-03  2704   0.224E+00    0.226E-01
DAV:   6    -0.629162759161E+02    0.27716E-03   -0.46980E-03  2896   0.171E+00    0.171E-01
DAV:   7    -0.629159286190E+02    0.34730E-03   -0.27427E-03  2808   0.140E+00    0.672E-02
DAV:   8    -0.629159089073E+02    0.19712E-04   -0.49071E-04  1712   0.425E-01
  17 F= -.69937187E+02 E0= -.69926452E+02  d E =-.192385E-01  mag=     0.0000
       N       E                     dE             d eps       ncg     rms          rms(c)
DAV:   1    -0.629190434958E+02   -0.31149E-02   -0.17581E+00  2376   0.396E+00    0.166E-01
DAV:   2    -0.629254077507E+02   -0.63643E-02   -0.40747E-02  3936   0.269E+00    0.435E-01
DAV:   3    -0.629227996302E+02    0.26081E-02   -0.14052E-02  3936   0.263E+00    0.205E-01
DAV:   4    -0.629224147162E+02    0.38491E-03   -0.31195E-03  2592   0.143E+00    0.143E-01
DAV:   5    -0.629222128380E+02    0.20188E-03   -0.11792E-03  2544   0.862E-01    0.905E-02
DAV:   6    -0.629222313520E+02   -0.18514E-04   -0.94383E-04  2384   0.758E-01
  18 F= -.69945601E+02 E0= -.69935040E+02  d E =-.841401E-02  mag=     0.0000
       N       E                     dE             d eps       ncg     rms          rms(c)
DAV:   1    -0.629006162053E+02    0.21597E-01   -0.15819E+01  2376   0.120E+01    0.492E-01
DAV:   2    -0.629607192366E+02   -0.60103E-01   -0.39054E-01  3968   0.811E+00    0.133E+00
DAV:   3    -0.629339142771E+02    0.26805E-01   -0.11820E-01  4064   0.759E+00    0.513E-01
DAV:   4    -0.629322326670E+02    0.16816E-02   -0.23034E-02  3104   0.352E+00    0.437E-01
DAV:   5    -0.629307185643E+02    0.15141E-02   -0.11231E-02  2768   0.306E+00    0.317E-01
DAV:   6    -0.629302628384E+02    0.45573E-03   -0.95754E-03  2944   0.232E+00    0.253E-01
DAV:   7    -0.629296754909E+02    0.58735E-03   -0.55173E-03  2680   0.204E+00    0.123E-01
DAV:   8    -0.629295851134E+02    0.90377E-04   -0.15662E-03  2980   0.768E-01
  19 F= -.69959345E+02 E0= -.69949867E+02  d E =-.221584E-01  mag=     0.0000
       N       E                     dE             d eps       ncg     rms          rms(c)
DAV:   1    -0.629261610782E+02    0.35144E-02   -0.13115E+00  2392   0.345E+00    0.143E-01
DAV:   2    -0.629304669242E+02   -0.43058E-02   -0.29833E-02  3808   0.224E+00    0.337E-01
DAV:   3    -0.629291906816E+02    0.12762E-02   -0.99331E-03  3664   0.227E+00    0.195E-01
DAV:   4    -0.629287306523E+02    0.46003E-03   -0.28505E-03  2560   0.137E+00    0.121E-01
DAV:   5    -0.629285983386E+02    0.13231E-03   -0.88456E-04  2280   0.714E-01
  20 F= -.69960244E+02 E0= -.69950945E+02  d E =-.230575E-01  mag=     0.0000
       N       E                     dE             d eps       ncg     rms          rms(c)
DAV:   1    -0.629280009850E+02    0.72967E-03   -0.10859E-01  3080   0.120E+00    0.829E-02
DAV:   2    -0.629291823879E+02   -0.11814E-02   -0.59061E-03  2864   0.184E+00    0.234E-01
DAV:   3    -0.629284242755E+02    0.75811E-03   -0.61107E-03  2032   0.180E+00    0.154E-01
DAV:   4    -0.629280127842E+02    0.41149E-03   -0.65215E-04  1584   0.863E-01    0.342E-02
DAV:   5    -0.629280433309E+02   -0.30547E-04   -0.25056E-04  1464   0.313E-01
  21 F= -.69960233E+02 E0= -.69951299E+02  d E =-.230461E-01  mag=     0.0000
       N       E                     dE             d eps       ncg     rms          rms(c)
DAV:   1    -0.629283440414E+02   -0.33126E-03   -0.30899E-02  3176   0.698E-01    0.355E-02
DAV:   2    -0.629287792504E+02   -0.43521E-03   -0.11774E-03  1872   0.109E+00    0.140E-01
DAV:   3    -0.629284963210E+02    0.28293E-03   -0.14681E-03  1632   0.101E+00    0.890E-02
DAV:   4    -0.629283421681E+02    0.15415E-03   -0.50387E-04  1528   0.560E-01
  22 F= -.69960243E+02 E0= -.69951092E+02  d E =-.230559E-01  mag=     0.0000
       N       E                     dE             d eps       ncg     rms          rms(c)
DAV:   1    -0.629302213520E+02   -0.17250E-02   -0.13377E-01  2432   0.112E+00    0.356E-02
DAV:   2    -0.629305440455E+02   -0.32269E-03   -0.27956E-03  3328   0.506E-01    0.779E-02
DAV:   3    -0.629304901189E+02    0.53927E-04   -0.50264E-04  1520   0.512E-01
  23 F= -.69962249E+02 E0= -.69953088E+02  d E =-.200574E-02  mag=     0.0000
       N       E                     dE             d eps       ncg     rms          rms(c)
DAV:   1    -0.629324809028E+02   -0.19369E-02   -0.12058E+00  2440   0.333E+00    0.132E-01
DAV:   2    -0.629351446256E+02   -0.26637E-02   -0.24828E-02  3600   0.148E+00    0.219E-01
DAV:   3    -0.629349435781E+02    0.20105E-03   -0.49838E-03  2752   0.155E+00    0.168E-01
DAV:   4    -0.629347065372E+02    0.23704E-03   -0.20505E-03  2360   0.112E+00    0.121E-01
DAV:   5    -0.629345577733E+02    0.14876E-03   -0.63522E-04  1760   0.753E-01
  24 F= -.69965979E+02 E0= -.69956840E+02  d E =-.573655E-02  mag=     0.0000
       N       E                     dE             d eps       ncg     rms          rms(c)
DAV:   1    -0.629238408788E+02    0.10866E-01   -0.48072E+00  2440   0.664E+00    0.247E-01
DAV:   2    -0.629397259627E+02   -0.15885E-01   -0.10729E-01  3936   0.415E+00    0.629E-01
DAV:   3    -0.629333928026E+02    0.63332E-02   -0.36659E-02  3664   0.413E+00    0.295E-01
DAV:   4    -0.629328040157E+02    0.58879E-03   -0.62096E-03  2744   0.210E+00    0.214E-01
DAV:   5    -0.629324292523E+02    0.37476E-03   -0.35380E-03  2656   0.143E+00    0.141E-01
DAV:   6    -0.629324096799E+02    0.19572E-04   -0.22879E-03  2640   0.965E-01    0.110E-01
DAV:   7    -0.629322806140E+02    0.12907E-03   -0.13896E-03  2456   0.954E-01
  25 F= -.69963539E+02 E0= -.69953722E+02  d E =-.329624E-02  mag=     0.0000
       N       E                     dE             d eps       ncg     rms          rms(c)
DAV:   1    -0.629312160089E+02    0.11937E-02   -0.24935E+00  2432   0.475E+00    0.166E-01
DAV:   2    -0.629366250772E+02   -0.54091E-02   -0.48269E-02  3584   0.192E+00    0.316E-01
DAV:   3    -0.629358294305E+02    0.79565E-03   -0.99009E-03  2816   0.220E+00    0.196E-01
DAV:   4    -0.629354260283E+02    0.40340E-03   -0.22351E-03  2432   0.998E-01    0.120E-01
DAV:   5    -0.629353938264E+02    0.32202E-04   -0.11176E-03  2344   0.841E-01
  26 F= -.69966694E+02 E0= -.69956814E+02  d E =-.645098E-02  mag=     0.0000
       N       E                     dE             d eps       ncg     rms          rms(c)
DAV:   1    -0.629373453419E+02   -0.19193E-02   -0.91488E-02  3400   0.141E+00    0.102E-01
DAV:   2    -0.629415295551E+02   -0.41842E-02   -0.96269E-03  2800   0.354E+00    0.435E-01
DAV:   3    -0.629390462514E+02    0.24833E-02   -0.12810E-02  2768   0.322E+00    0.298E-01
DAV:   4    -0.629371513584E+02    0.18949E-02   -0.45838E-03  1968   0.171E+00    0.477E-02
DAV:   5    -0.629371596283E+02   -0.82699E-05   -0.25940E-04  1440   0.300E-01
  27 F= -.69967923E+02 E0= -.69958304E+02  d E =-.122945E-02  mag=     0.0000
       N       E                     dE             d eps       ncg     rms          rms(c)
DAV:   1    -0.629400975867E+02   -0.29462E-02   -0.78353E-01  2376   0.268E+00    0.978E-02
DAV:   2    -0.629426356935E+02   -0.25381E-02   -0.17391E-02  3920   0.159E+00    0.261E-01
DAV:   3    -0.629415425415E+02    0.10932E-02   -0.50420E-03  2992   0.155E+00    0.108E-01
DAV:   4    -0.629414979348E+02    0.44607E-04   -0.72557E-04  2104   0.635E-01
  28 F= -.69970766E+02 E0= -.69960735E+02  d E =-.407192E-02  mag=     0.0000
       N       E                     dE             d eps       ncg     rms          rms(c)
DAV:   1    -0.629381082033E+02    0.34343E-02   -0.31244E+00  2376   0.538E+00    0.221E-01
DAV:   2    -0.629463194597E+02   -0.82113E-02   -0.66606E-02  3808   0.262E+00    0.443E-01
DAV:   3    -0.629438751496E+02    0.24443E-02   -0.15431E-02  3136   0.266E+00    0.226E-01
DAV:   4    -0.629434484426E+02    0.42671E-03   -0.29822E-03  2472   0.105E+00    0.149E-01
DAV:   5    -0.629433813179E+02    0.67125E-04   -0.20252E-03  2648   0.112E+00    0.138E-01
DAV:   6    -0.629435115299E+02   -0.13021E-03   -0.17773E-03  2720   0.132E+00
  29 F= -.69970068E+02 E0= -.69959100E+02  d E =-.337391E-02  mag=     0.0000
       N       E                     dE             d eps       ncg     rms          rms(c)
DAV:   1    -0.629411357167E+02    0.22456E-02   -0.11824E+00  2416   0.344E+00    0.126E-01
DAV:   2    -0.629470866487E+02   -0.59509E-02   -0.32106E-02  4160   0.260E+00    0.454E-01
DAV:   3    -0.629433508986E+02    0.37358E-02   -0.12683E-02  4176   0.250E+00    0.125E-01
DAV:   4    -0.629433043417E+02    0.46557E-04   -0.13075E-03  2488   0.726E-01
  30 F= -.69971491E+02 E0= -.69961798E+02  d E =-.479681E-02  mag=     0.0000
       N       E                     dE             d eps       ncg     rms          rms(c)
DAV:   1    -0.629430803888E+02    0.27051E-03   -0.18614E-02  3488   0.907E-01    0.965E-02
DAV:   2    -0.629442955060E+02   -0.12151E-02   -0.33719E-03  2624   0.207E+00    0.234E-01
DAV:   3    -0.629433602266E+02    0.93528E-03   -0.40693E-03  1912   0.190E+00    0.153E-01
DAV:   4    -0.629429671532E+02    0.39307E-03   -0.16120E-03  1552   0.989E-01    0.615E-02
DAV:   5    -0.629429134099E+02    0.53743E-04   -0.26893E-04  1600   0.293E-01
  31 F= -.69971309E+02 E0= -.69961360E+02  d E =-.461542E-02  mag=     0.0000
       N       E                     dE             d eps       ncg     rms          rms(c)
DAV:   1    -0.629430755351E+02   -0.10838E-03   -0.63286E-03  2656   0.267E-01    0.195E-02
DAV:   2    -0.629431486564E+02   -0.73121E-04   -0.24074E-04  1568   0.425E-01
  32 F= -.69971421E+02 E0= -.69961708E+02  d E =-.472720E-02  mag=     0.0000
       N       E                     dE             d eps       ncg     rms          rms(c)
DAV:   1    -0.629447275723E+02   -0.16520E-02   -0.60610E-02  3240   0.891E-01    0.439E-02
DAV:   2    -0.629488021827E+02   -0.40746E-02   -0.95668E-03  1936   0.240E+00    0.437E-01
DAV:   3    -0.629446915060E+02    0.41107E-02   -0.78057E-03  1712   0.212E+00    0.317E-02
DAV:   4    -0.629447422119E+02   -0.50706E-04   -0.28859E-04  1656   0.389E-01
  33 F= -.69972283E+02 E0= -.69962536E+02  d E =-.861754E-03  mag=     0.0000
       N       E                     dE             d eps       ncg     rms          rms(c)
DAV:   1    -0.629484507015E+02   -0.37592E-02   -0.53478E-01  2416   0.226E+00    0.790E-02
DAV:   2    -0.629512410582E+02   -0.27904E-02   -0.13695E-02  4208   0.185E+00    0.309E-01
DAV:   3    -0.629494226166E+02    0.18184E-02   -0.57656E-03  3152   0.172E+00    0.881E-02
DAV:   4    -0.629493992984E+02    0.23318E-04   -0.72513E-04  1952   0.584E-01
  34 F= -.69974752E+02 E0= -.69964534E+02  d E =-.333084E-02  mag=     0.0000
       N       E                     dE             d eps       ncg     rms          rms(c)
DAV:   1    -0.629537120784E+02   -0.42895E-02   -0.21334E+00  2432   0.445E+00    0.174E-01
DAV:   2    -0.629592428037E+02   -0.55307E-02   -0.43728E-02  3864   0.213E+00    0.362E-01
DAV:   3    -0.629575164887E+02    0.17263E-02   -0.97573E-03  3200   0.213E+00    0.184E-01
DAV:   4    -0.629573585991E+02    0.15789E-03   -0.20616E-03  2552   0.107E+00    0.144E-01
DAV:   5    -0.629572888235E+02    0.69776E-04   -0.15236E-03  2640   0.117E+00
  35 F= -.69978298E+02 E0= -.69968657E+02  d E =-.687699E-02  mag=     0.0000
       N       E                     dE             d eps       ncg     rms          rms(c)
DAV:   1    -0.629515003321E+02    0.58583E-02   -0.85341E+00  2440   0.901E+00    0.314E-01
DAV:   2    -0.629772609157E+02   -0.25761E-01   -0.18991E-01  3976   0.542E+00    0.744E-01
DAV:   3    -0.629696642080E+02    0.75967E-02   -0.57792E-02  3552   0.518E+00    0.458E-01
DAV:   4    -0.629673844143E+02    0.22798E-02   -0.12570E-02  2736   0.296E+00    0.278E-01
DAV:   5    -0.629668553431E+02    0.52907E-03   -0.56002E-03  2728   0.161E+00    0.202E-01
DAV:   6    -0.629667950331E+02    0.60310E-04   -0.45531E-03  2808   0.155E+00    0.178E-01
DAV:   7    -0.629663951345E+02    0.39990E-03   -0.30132E-03  2616   0.144E+00    0.463E-02
DAV:   8    -0.629664205134E+02   -0.25379E-04   -0.71283E-04  1920   0.354E-01
  36 F= -.69978868E+02 E0= -.69968096E+02  d E =-.744733E-02  mag=     0.0000
       N       E                     dE             d eps       ncg     rms          rms(c)
DAV:   1    -0.629623116029E+02    0.40835E-02   -0.10850E+00  2448   0.318E+00    0.107E-01
DAV:   2    -0.629657899095E+02   -0.34783E-02   -0.22428E-02  4096   0.184E+00    0.320E-01
DAV:   3    -0.629641193838E+02    0.16705E-02   -0.67043E-03  3312   0.182E+00    0.109E-01
DAV:   4    -0.629640949311E+02    0.24453E-04   -0.11634E-03  2304   0.550E-01
  37 F= -.69979575E+02 E0= -.69969250E+02  d E =-.815345E-02  mag=     0.0000
       N       E                     dE             d eps       ncg     rms          rms(c)
DAV:   1    -0.629665142401E+02   -0.23949E-02   -0.13462E-01  3248   0.135E+00    0.802E-02
DAV:   2    -0.629689066191E+02   -0.23924E-02   -0.62290E-03  2992   0.256E+00    0.319E-01
DAV:   3    -0.629674969975E+02    0.14096E-02   -0.84903E-03  1968   0.237E+00    0.215E-01
DAV:   4    -0.629664969680E+02    0.10000E-02   -0.24228E-03  1664   0.127E+00    0.322E-02
DAV:   5    -0.629665298222E+02   -0.32854E-04   -0.31141E-04  1456   0.253E-01
  38 F= -.69980693E+02 E0= -.69970214E+02  d E =-.111819E-02  mag=     0.0000
       N       E                     dE             d eps       ncg     rms          rms(c)
DAV:   1    -0.629702617370E+02   -0.37648E-02   -0.11891E+00  2392   0.331E+00    0.144E-01
DAV:   2    -0.629744994785E+02   -0.42377E-02   -0.26684E-02  4112   0.219E+00    0.356E-01
DAV:   3    -0.629723878601E+02    0.21116E-02   -0.96624E-03  3632   0.217E+00    0.159E-01
DAV:   4    -0.629722474584E+02    0.14040E-03   -0.16387E-03  2368   0.113E+00
  39 F= -.69982573E+02 E0= -.69971478E+02  d E =-.299798E-02  mag=     0.0000
       N       E                     dE             d eps       ncg     rms          rms(c)
DAV:   1    -0.629734248040E+02   -0.10369E-02   -0.19186E-01  3192   0.157E+00    0.118E-01
DAV:   2    -0.629745557297E+02   -0.11309E-02   -0.38871E-03  2848   0.169E+00    0.260E-01
DAV:   3    -0.629739242510E+02    0.63148E-03   -0.56003E-03  2336   0.186E+00    0.177E-01
DAV:   4    -0.629735078124E+02    0.41644E-03   -0.24525E-03  1696   0.136E+00    0.102E-01
DAV:   5    -0.629733829416E+02    0.12487E-03   -0.70742E-04  1856   0.844E-01
  40 F= -.69982225E+02 E0= -.69971484E+02  d E =-.265002E-02  mag=     0.0000
       N       E                     dE             d eps       ncg     rms          rms(c)
DAV:   1    -0.629726588406E+02    0.84897E-03   -0.57401E-02  3040   0.912E-01    0.363E-02
DAV:   2    -0.629727110203E+02   -0.52180E-04   -0.72671E-04  1848   0.315E-01
  41 F= -.69982353E+02 E0= -.69971806E+02  d E =-.277863E-02  mag=     0.0000
       N       E                     dE             d eps       ncg     rms          rms(c)
DAV:   1    -0.629766603492E+02   -0.40015E-02   -0.37415E-01  2368   0.195E+00    0.835E-02
DAV:   2    -0.629946733097E+02   -0.18013E-01   -0.44369E-02  4304   0.504E+00    0.891E-01
DAV:   3    -0.629771475903E+02    0.17526E-01   -0.34767E-02  3904   0.433E+00    0.717E-02
DAV:   4    -0.629772682834E+02   -0.12069E-03   -0.15079E-03  2976   0.606E-01
  42 F= -.69984150E+02 E0= -.69973351E+02  d E =-.179708E-02  mag=     0.0000
       N       E                     dE             d eps       ncg     rms          rms(c)
DAV:   1    -0.629848466795E+02   -0.76991E-02   -0.33799E+00  2376   0.561E+00    0.216E-01
DAV:   2    -0.629962480981E+02   -0.11401E-01   -0.73200E-02  4080   0.339E+00    0.576E-01
DAV:   3    -0.629907892947E+02    0.54588E-02   -0.22785E-02  3904   0.325E+00    0.226E-01
DAV:   4    -0.629905246737E+02    0.26462E-03   -0.31471E-03  2608   0.130E+00    0.180E-01
DAV:   5    -0.629904126677E+02    0.11201E-03   -0.23198E-03  2736   0.136E+00    0.155E-01
DAV:   6    -0.629902521193E+02    0.16055E-03   -0.17146E-03  2592   0.127E+00
  43 F= -.69988887E+02 E0= -.69978201E+02  d E =-.653375E-02  mag=     0.0000
       N       E                     dE             d eps       ncg     rms          rms(c)
DAV:   1    -0.629878468448E+02    0.25658E-02   -0.13482E+01  2384   0.113E+01    0.391E-01
DAV:   2    -0.630305026939E+02   -0.42656E-01   -0.29487E-01  4048   0.619E+00    0.101E+00
DAV:   3    -0.630139996437E+02    0.16503E-01   -0.80253E-02  3664   0.607E+00    0.443E-01
DAV:   4    -0.630125233327E+02    0.14763E-02   -0.12244E-02  2928   0.261E+00    0.334E-01
DAV:   5    -0.630121209370E+02    0.40240E-03   -0.77491E-03  2752   0.234E+00    0.280E-01
DAV:   6    -0.630115756054E+02    0.54533E-03   -0.55194E-03  2968   0.193E+00    0.221E-01
DAV:   7    -0.630110506203E+02    0.52499E-03   -0.35870E-03  3032   0.161E+00    0.406E-02
DAV:   8    -0.630110808308E+02   -0.30210E-04   -0.94178E-04  2056   0.450E-01
  44 F= -.69993372E+02 E0= -.69983012E+02  d E =-.110191E-01  mag=     0.0000
       N       E                     dE             d eps       ncg     rms          rms(c)
DAV:   1    -0.630183138755E+02   -0.72633E-02   -0.11668E+00  2360   0.316E+00    0.154E-01
DAV:   2    -0.630217700846E+02   -0.34562E-02   -0.25098E-02  4048   0.184E+00    0.312E-01
DAV:   3    -0.630205060603E+02    0.12640E-02   -0.88666E-03  3616   0.209E+00    0.167E-01
DAV:   4    -0.630203466769E+02    0.15938E-03   -0.18850E-03  2360   0.117E+00
  45 F= -.69997086E+02 E0= -.69986421E+02  d E =-.371383E-02  mag=    -0.0000
       N       E                     dE             d eps       ncg     rms          rms(c)
DAV:   1    -0.630204673099E+02    0.38750E-04   -0.48887E-03  3848   0.116E+00    0.871E-02
DAV:   2    -0.630219709093E+02   -0.15036E-02   -0.35357E-03  2720   0.224E+00    0.261E-01
DAV:   3    -0.630207117820E+02    0.12591E-02   -0.35040E-03  2112   0.195E+00    0.135E-01
DAV:   4    -0.630204021441E+02    0.30964E-03   -0.11801E-03  1528   0.822E-01    0.492E-02
DAV:   5    -0.630204096532E+02   -0.75091E-05   -0.27013E-04  1440   0.404E-01
  46 F= -.69996830E+02 E0= -.69986851E+02  d E =-.345803E-02  mag=    -0.0000
       N       E                     dE             d eps       ncg     rms          rms(c)
DAV:   1    -0.630201774726E+02    0.22467E-03   -0.23698E-03  3104   0.313E-01    0.122E-02
DAV:   2    -0.630201927782E+02   -0.15306E-04   -0.86146E-05  1504   0.166E-01
  47 F= -.69996858E+02 E0= -.69986919E+02  d E =-.348521E-02  mag=    -0.0000
       N       E                     dE             d eps       ncg     rms          rms(c)
DAV:   1    -0.630260711396E+02   -0.58937E-02   -0.14869E+00  2456   0.355E+00    0.102E-01
DAV:   2    -0.630289676858E+02   -0.28965E-02   -0.26691E-02  3448   0.124E+00    0.186E-01
DAV:   3    -0.630287900843E+02    0.17760E-03   -0.47670E-03  2640   0.146E+00    0.154E-01
DAV:   4    -0.630285793011E+02    0.21078E-03   -0.85527E-04  1960   0.640E-01    0.809E-02
DAV:   5    -0.630286002336E+02   -0.20933E-04   -0.34061E-04  1600   0.554E-01
  48 F= -.70000549E+02 E0= -.69990563E+02  d E =-.369190E-02  mag=    -0.0000
       N       E                     dE             d eps       ncg     rms          rms(c)
DAV:   1    -0.630329298237E+02   -0.43505E-02   -0.42444E+00  2456   0.605E+00    0.200E-01
DAV:   2    -0.630439977697E+02   -0.11068E-01   -0.80570E-02  4008   0.339E+00    0.521E-01
DAV:   3    -0.630410962177E+02    0.29016E-02   -0.23920E-02  3520   0.342E+00    0.304E-01
DAV:   4    -0.630400919280E+02    0.10043E-02   -0.57934E-03  2672   0.193E+00    0.187E-01
DAV:   5    -0.630398536894E+02    0.23824E-03   -0.19545E-03  2608   0.939E-01    0.128E-01
DAV:   6    -0.630398526061E+02    0.10832E-05   -0.13738E-03  2568   0.915E-01
  49 F= -.70003917E+02 E0= -.69995157E+02  d E =-.705961E-02  mag=    -0.0000
       N       E                     dE             d eps       ncg     rms          rms(c)
DAV:   1    -0.630206258183E+02    0.19228E-01   -0.16994E+01  2440   0.121E+01    0.367E-01
DAV:   2    -0.630593885704E+02   -0.38763E-01   -0.34738E-01  3568   0.474E+00    0.767E-01
DAV:   3    -0.630560235552E+02    0.33650E-02   -0.57856E-02  3024   0.541E+00    0.508E-01
DAV:   4    -0.630519275759E+02    0.40960E-02   -0.11905E-02  2928   0.228E+00    0.279E-01
DAV:   5    -0.630528103245E+02   -0.88275E-03   -0.67144E-03  3136   0.221E+00    0.331E-01
DAV:   6    -0.630515406778E+02    0.12696E-02   -0.72687E-03  2800   0.282E+00    0.188E-01
DAV:   7    -0.630511159564E+02    0.42472E-03   -0.34649E-03  3296   0.155E+00    0.855E-02
DAV:   8    -0.630510935373E+02    0.22419E-04   -0.10027E-03  2240   0.605E-01
  50 F= -.69999658E+02 E0= -.69992311E+02  d E =-.280004E-02  mag=    -0.0000
       N       E                     dE             d eps       ncg     rms          rms(c)
DAV:   1    -0.630297111506E+02    0.21405E-01   -0.88848E+00  2456   0.867E+00    0.312E-01
DAV:   2    -0.630469567724E+02   -0.17246E-01   -0.18013E-01  3376   0.394E+00    0.452E-01
DAV:   3    -0.630477987912E+02   -0.84202E-03   -0.18382E-02  2720   0.361E+00    0.456E-01
DAV:   4    -0.630455609772E+02    0.22378E-02   -0.14204E-02  2736   0.279E+00    0.260E-01
DAV:   5    -0.630449894513E+02    0.57153E-03   -0.36439E-03  3000   0.146E+00    0.206E-01
DAV:   6    -0.630448225528E+02    0.16690E-03   -0.22185E-03  2784   0.157E+00    0.183E-01
DAV:   7    -0.630444127310E+02    0.40982E-03   -0.24128E-03  3128   0.117E+00    0.717E-02
DAV:   8    -0.630443981693E+02    0.14562E-04   -0.84079E-04  2176   0.713E-01
  51 F= -.70004135E+02 E0= -.69995595E+02  d E =-.727791E-02  mag=    -0.0000
       N       E                     dE             d eps       ncg     rms          rms(c)
DAV:   1    -0.630482721875E+02   -0.38595E-02   -0.87008E-01  2440   0.278E+00    0.115E-01
DAV:   2    -0.630506331662E+02   -0.23610E-02   -0.17537E-02  3936   0.150E+00    0.259E-01
DAV:   3    -0.630498391596E+02    0.79401E-03   -0.52161E-03  2928   0.168E+00    0.129E-01
DAV:   4    -0.630496324353E+02    0.20672E-03   -0.12424E-03  2120   0.765E-01    0.773E-02
DAV:   5    -0.630495965249E+02    0.35910E-04   -0.56946E-04  1920   0.535E-01
  52 F= -.70006142E+02 E0= -.69997932E+02  d E =-.200622E-02  mag=    -0.0000
       N       E                     dE             d eps       ncg     rms          rms(c)
DAV:   1    -0.630497320545E+02   -0.99619E-04   -0.24145E-03  3320   0.399E-01    0.330E-02
DAV:   2    -0.630500925030E+02   -0.36045E-03   -0.91316E-04  1728   0.935E-01    0.137E-01
DAV:   3    -0.630498380332E+02    0.25447E-03   -0.14429E-03  1600   0.954E-01    0.761E-02
DAV:   4    -0.630497286154E+02    0.10942E-03   -0.25649E-04  1448   0.465E-01
  53 F= -.70006126E+02 E0= -.69997784E+02  d E =-.199004E-02  mag=    -0.0000
       N       E                     dE             d eps       ncg     rms          rms(c)
DAV:   1    -0.630533936918E+02   -0.35557E-02   -0.54067E-01  2472   0.219E+00    0.639E-02
DAV:   2    -0.630550901327E+02   -0.16964E-02   -0.10907E-02  3968   0.126E+00    0.218E-01
DAV:   3    -0.630543463613E+02    0.74377E-03   -0.31558E-03  2592   0.126E+00    0.711E-02
DAV:   4    -0.630543441313E+02    0.22299E-05   -0.58617E-04  1808   0.365E-01
  54 F= -.70008118E+02 E0= -.70000062E+02  d E =-.199215E-02  mag=    -0.0000
       N       E                     dE             d eps       ncg     rms          rms(c)
DAV:   1    -0.630565717782E+02   -0.22254E-02   -0.34865E+00  2464   0.558E+00    0.181E-01
DAV:   2    -0.630658630013E+02   -0.92912E-02   -0.70466E-02  3776   0.278E+00    0.468E-01
DAV:   3    -0.630629559719E+02    0.29070E-02   -0.16151E-02  3328   0.277E+00    0.195E-01
DAV:   4    -0.630626530900E+02    0.30288E-03   -0.25803E-03  2432   0.830E-01    0.140E-01
DAV:   5    -0.630626455470E+02    0.75430E-05   -0.17341E-03  2560   0.913E-01
  55 F= -.70009838E+02 E0= -.70002097E+02  d E =-.371207E-02  mag=    -0.0000
       N       E                     dE             d eps       ncg     rms          rms(c)
DAV:   1    -0.630615198379E+02    0.11333E-02   -0.81190E-02  3288   0.108E+00    0.570E-02
DAV:   2    -0.630616973668E+02   -0.17753E-03   -0.13097E-03  2456   0.929E-01
  56 F= -.70009869E+02 E0= -.70001733E+02  d E =-.374368E-02  mag=    -0.0000
       N       E                     dE             d eps       ncg     rms          rms(c)
DAV:   1    -0.630635556390E+02   -0.20358E-02   -0.13191E-01  3176   0.149E+00    0.122E-01
DAV:   2    -0.631036460809E+02   -0.40090E-01   -0.91156E-02  3216   0.774E+00    0.134E+00
DAV:   3    -0.630633263908E+02    0.40320E-01   -0.73739E-02  2960   0.637E+00    0.889E-02
DAV:   4    -0.630634550303E+02   -0.12864E-03   -0.11098E-03  2352   0.783E-01
  57 F= -.70010307E+02 E0= -.70002271E+02  d E =-.437450E-03  mag=    -0.0000
       N       E                     dE             d eps       ncg     rms          rms(c)
DAV:   1    -0.630664783363E+02   -0.31519E-02   -0.63874E-01  2400   0.244E+00    0.868E-02
DAV:   2    -0.630701201146E+02   -0.36418E-02   -0.16071E-02  4176   0.209E+00    0.376E-01
DAV:   3    -0.630675584970E+02    0.25616E-02   -0.71796E-03  3632   0.193E+00    0.838E-02
DAV:   4    -0.630675698247E+02   -0.11328E-04   -0.78132E-04  2008   0.438E-01
  58 F= -.70011511E+02 E0= -.70003738E+02  d E =-.164179E-02  mag=    -0.0000
       N       E                     dE             d eps       ncg     rms          rms(c)
DAV:   1    -0.630701775732E+02   -0.26191E-02   -0.25409E+00  2392   0.480E+00    0.175E-01
DAV:   2    -0.630785318460E+02   -0.83543E-02   -0.51355E-02  4112   0.280E+00    0.510E-01
DAV:   3    -0.630742943493E+02    0.42375E-02   -0.15674E-02  3680   0.274E+00    0.166E-01
DAV:   4    -0.630741873649E+02    0.10698E-03   -0.22464E-03  2488   0.742E-01    0.132E-01
DAV:   5    -0.630744250742E+02   -0.23771E-03   -0.18104E-03  2768   0.128E+00    0.157E-01
DAV:   6    -0.630741364657E+02    0.28861E-03   -0.15219E-03  2480   0.135E+00    0.993E-02
DAV:   7    -0.630739438573E+02    0.19261E-03   -0.48540E-04  1592   0.708E-01
  59 F= -.70012103E+02 E0= -.70004412E+02  d E =-.223377E-02  mag=    -0.0000
       N       E                     dE             d eps       ncg     rms          rms(c)
DAV:   1    -0.630749793104E+02   -0.84284E-03   -0.41221E-02  2472   0.643E-01    0.389E-02
DAV:   2    -0.630763209582E+02   -0.13416E-02   -0.34713E-03  2016   0.150E+00    0.259E-01
DAV:   3    -0.630750151032E+02    0.13059E-02   -0.31877E-03  1664   0.138E+00    0.431E-02
DAV:   4    -0.630750125796E+02    0.25236E-05   -0.17179E-04  1440   0.347E-01
  60 F= -.70012443E+02 E0= -.70004635E+02  d E =-.339999E-03  mag=    -0.0000
       N       E                     dE             d eps       ncg     rms          rms(c)
DAV:   1    -0.630756621121E+02   -0.64701E-03   -0.17308E-02  2648   0.445E-01    0.254E-02
DAV:   2    -0.630759971112E+02   -0.33500E-03   -0.78368E-04  1712   0.708E-01    0.132E-01
DAV:   3    -0.630756556750E+02    0.34144E-03   -0.75858E-04  1512   0.685E-01    0.196E-02
DAV:   4    -0.630756724753E+02   -0.16800E-04   -0.63031E-05  1392   0.195E-01
  61 F= -.70012652E+02 E0= -.70005095E+02  d E =-.549321E-03  mag=    -0.0000
       N       E                     dE             d eps       ncg     rms          rms(c)
DAV:   1    -0.630767433429E+02   -0.10877E-02   -0.63929E-02  2456   0.813E-01    0.342E-02
DAV:   2    -0.630771462229E+02   -0.40288E-03   -0.13025E-03  2240   0.910E-01    0.137E-01
DAV:   3    -0.630768722919E+02    0.27393E-03   -0.13568E-03  1744   0.880E-01    0.676E-02
DAV:   4    -0.630768038410E+02    0.68451E-04   -0.36249E-04  1496   0.465E-01
  62 F= -.70012887E+02 E0= -.70005139E+02  d E =-.783589E-03  mag=    -0.0000
       N       E                     dE             d eps       ncg     rms          rms(c)
DAV:   1    -0.630772336996E+02   -0.36141E-03   -0.93021E-03  2880   0.342E-01    0.277E-02
DAV:   2    -0.630772847919E+02   -0.51092E-04   -0.20639E-04  1520   0.374E-01
  63 F= -.70013046E+02 E0= -.70005458E+02  d E =-.943060E-03  mag=    -0.0000
       N       E                     dE             d eps       ncg     rms          rms(c)
DAV:   1    -0.630779678429E+02   -0.73414E-03   -0.33708E-02  3208   0.713E-01    0.504E-02
DAV:   2    -0.630817521282E+02   -0.37843E-02   -0.85399E-03  1936   0.236E+00    0.427E-01
DAV:   3    -0.630778911135E+02    0.38610E-02   -0.74612E-03  1712   0.209E+00    0.374E-02
DAV:   4    -0.630779400419E+02   -0.48928E-04   -0.11608E-04  1448   0.271E-01
  64 F= -.70013061E+02 E0= -.70005383E+02  d E =-.957678E-03  mag=    -0.0000
       N       E                     dE             d eps       ncg     rms          rms(c)
DAV:   1    -0.630782305141E+02   -0.33940E-03   -0.56822E-03  3312   0.305E-01    0.204E-02
DAV:   2    -0.630783533088E+02   -0.12279E-03   -0.31435E-04  1616   0.553E-01
  65 F= -.70013218E+02 E0= -.70005900E+02  d E =-.111486E-02  mag=    -0.0000
       N       E                     dE             d eps       ncg     rms          rms(c)
DAV:   1    -0.630787666176E+02   -0.53610E-03   -0.21763E-02  3312   0.728E-01    0.529E-02
DAV:   2    -0.630862117079E+02   -0.74451E-02   -0.16738E-02  1968   0.320E+00    0.600E-01
DAV:   3    -0.630786927687E+02    0.75189E-02   -0.14280E-02  1792   0.288E+00    0.514E-02
DAV:   4    -0.630787281712E+02   -0.35403E-04   -0.18509E-04  1520   0.461E-01
  66 F= -.70013082E+02 E0= -.70005548E+02  d E =-.979150E-03  mag=    -0.0000
       N       E                     dE             d eps       ncg     rms          rms(c)
DAV:   1    -0.630784175773E+02    0.27519E-03   -0.86137E-03  3120   0.359E-01    0.172E-02
DAV:   2    -0.630784869283E+02   -0.69351E-04   -0.22814E-04  1664   0.377E-01
  67 F= -.70013163E+02 E0= -.70005551E+02  d E =-.105975E-02  mag=    -0.0000
       N       E                     dE             d eps       ncg     rms          rms(c)
DAV:   1    -0.630785558956E+02   -0.13832E-03   -0.19796E-03  2784   0.428E-01    0.324E-02
DAV:   2    -0.630802370426E+02   -0.16811E-02   -0.37795E-03  1920   0.160E+00    0.287E-01
DAV:   3    -0.630785514132E+02    0.16856E-02   -0.35424E-03  1624   0.146E+00    0.357E-02
DAV:   4    -0.630785682300E+02   -0.16817E-04   -0.10426E-04  1400   0.246E-01
  68 F= -.70013083E+02 E0= -.70005446E+02  d E =-.980029E-03  mag=    -0.0000
       N       E                     dE             d eps       ncg     rms          rms(c)
DAV:   1    -0.630784502754E+02    0.10114E-03   -0.11388E-03  2304   0.145E-01    0.664E-03
DAV:   2    -0.630784580425E+02   -0.77671E-05   -0.40269E-05  1360   0.145E-01
  69 F= -.70013104E+02 E0= -.70005517E+02  d E =-.100073E-02  mag=    -0.0000
       N       E                     dE             d eps       ncg     rms          rms(c)
DAV:   1    -0.630785032764E+02   -0.53001E-04   -0.12349E-04  1304   0.139E-01    0.963E-03
DAV:   2    -0.630785810628E+02   -0.77786E-04   -0.23528E-04  1424   0.366E-01
  70 F= -.70013161E+02 E0= -.70005561E+02  d E =-.105828E-02  mag=    -0.0000
       N       E                     dE             d eps       ncg     rms          rms(c)
DAV:   1    -0.630784664991E+02    0.36777E-04   -0.20817E-04  1480   0.353E-01    0.131E-02
DAV:   2    -0.630787707348E+02   -0.30424E-03   -0.62971E-04  1536   0.653E-01    0.121E-01
DAV:   3    -0.630784636667E+02    0.30707E-03   -0.60788E-04  1488   0.614E-01    0.171E-02
DAV:   4    -0.630784688001E+02   -0.51334E-05   -0.24654E-05  1360   0.160E-01
  71 F= -.70013101E+02 E0= -.70005444E+02  d E =-.998493E-03  mag=    -0.0000
       N       E                     dE             d eps       ncg     rms          rms(c)
DAV:   1    -0.630784945156E+02   -0.30849E-04   -0.12910E-05  1360   0.528E-02    0.324E-03
DAV:   2    -0.630784981338E+02   -0.36182E-05   -0.16566E-05  1400   0.827E-02
  72 F= -.70013105E+02 E0= -.70005400E+02  d E =-.100159E-02  mag=    -0.0000
       N       E                     dE             d eps       ncg     rms          rms(c)
DAV:   1    -0.630784837651E+02    0.10750E-04   -0.16593E-05  1272   0.894E-02    0.613E-03
DAV:   2    -0.630785294625E+02   -0.45697E-04   -0.88945E-05  1248   0.263E-01
  73 F= -.70013149E+02 E0= -.70005435E+02  d E =-.104584E-02  mag=    -0.0000
       N       E                     dE             d eps       ncg     rms          rms(c)
DAV:   1    -0.630789631894E+02   -0.47942E-03   -0.99335E-03  3272   0.400E-01    0.106E-02
DAV:   2    -0.630790576943E+02   -0.94505E-04   -0.28978E-04  1520   0.386E-01
  74 F= -.70013398E+02 E0= -.70005742E+02  d E =-.249354E-03  mag=    -0.0000
       N       E                     dE             d eps       ncg     rms          rms(c)
DAV:   1    -0.630801783139E+02   -0.12151E-02   -0.88699E-02  2544   0.966E-01    0.320E-02
DAV:   2    -0.630803637575E+02   -0.18544E-03   -0.19472E-03  3168   0.326E-01
  75 F= -.70013870E+02 E0= -.70006151E+02  d E =-.720772E-03  mag=    -0.0000
       N       E                     dE             d eps       ncg     rms          rms(c)
DAV:   1    -0.630821132599E+02   -0.19349E-02   -0.35516E-01  2496   0.185E+00    0.771E-02
DAV:   2    -0.630887445363E+02   -0.66313E-02   -0.18757E-02  4368   0.302E+00    0.537E-01
DAV:   3    -0.630826140609E+02    0.61305E-02   -0.13067E-02  3480   0.268E+00    0.844E-02
DAV:   4    -0.630826677721E+02   -0.53711E-04   -0.91369E-04  2136   0.555E-01
  76 F= -.70014513E+02 E0= -.70006519E+02  d E =-.136449E-02  mag=    -0.0000
       N       E                     dE             d eps       ncg     rms          rms(c)
DAV:   1    -0.630832732517E+02   -0.65919E-03   -0.14068E+00  2456   0.362E+00    0.125E-01
DAV:   2    -0.630862059134E+02   -0.29327E-02   -0.28424E-02  3496   0.138E+00    0.207E-01
DAV:   3    -0.630860881136E+02    0.11780E-03   -0.41564E-03  2608   0.141E+00    0.170E-01
DAV:   4    -0.630858502420E+02    0.23787E-03   -0.14608E-03  2208   0.932E-01    0.111E-01
DAV:   5    -0.630857898634E+02    0.60379E-04   -0.50778E-04  1552   0.694E-01
  77 F= -.70014351E+02 E0= -.70006865E+02  d E =-.120194E-02  mag=    -0.0000
       N       E                     dE             d eps       ncg     rms          rms(c)
DAV:   1    -0.630833862892E+02    0.24640E-02   -0.46475E-01  2544   0.224E+00    0.934E-02
DAV:   2    -0.630845421604E+02   -0.11559E-02   -0.10062E-02  4144   0.163E+00    0.165E-01
DAV:   3    -0.630842507319E+02    0.29143E-03   -0.17575E-03  2640   0.125E+00    0.743E-02
DAV:   4    -0.630842485046E+02    0.22273E-05   -0.50388E-04  1600   0.490E-01
  78 F= -.70014697E+02 E0= -.70006832E+02  d E =-.154814E-02  mag=    -0.0000
       N       E                     dE             d eps       ncg     rms          rms(c)
DAV:   1    -0.630838343389E+02    0.41639E-03   -0.21417E-02  3264   0.581E-01    0.485E-02
DAV:   2    -0.630850091690E+02   -0.11748E-02   -0.28745E-03  1728   0.132E+00    0.247E-01
DAV:   3    -0.630837842615E+02    0.12249E-02   -0.25621E-03  1584   0.125E+00    0.363E-02
DAV:   4    -0.630838513409E+02   -0.67079E-04   -0.16818E-04  1456   0.450E-01
  79 F= -.70014702E+02 E0= -.70007239E+02  d E =-.155303E-02  mag=    -0.0000
       N       E                     dE             d eps       ncg     rms          rms(c)
DAV:   1    -0.630849554861E+02   -0.11712E-02   -0.51728E-02  2960   0.800E-01    0.350E-02
DAV:   2    -0.630853724918E+02   -0.41701E-03   -0.12412E-03  2016   0.817E-01    0.146E-01
DAV:   3    -0.630849873406E+02    0.38515E-03   -0.10254E-03  1544   0.778E-01    0.393E-02
DAV:   4    -0.630849917251E+02   -0.43845E-05   -0.15482E-04  1408   0.328E-01
  80 F= -.70014939E+02 E0= -.70006973E+02  d E =-.237200E-03  mag=    -0.0000
       N       E                     dE             d eps       ncg     rms          rms(c)
DAV:   1    -0.630851085419E+02   -0.12120E-03   -0.10635E-03  2200   0.304E-01    0.301E-02
DAV:   2    -0.630852571834E+02   -0.14864E-03   -0.68038E-04  1880   0.681E-01
  81 F= -.70015068E+02 E0= -.70006705E+02  d E =-.366326E-03  mag=    -0.0000
       N       E                     dE             d eps       ncg     rms          rms(c)
DAV:   1    -0.630850144525E+02    0.94089E-04   -0.52832E-04  1632   0.631E-01    0.460E-02
DAV:   2    -0.630905327799E+02   -0.55183E-02   -0.12122E-02  1792   0.277E+00    0.519E-01
DAV:   3    -0.630849337835E+02    0.55990E-02   -0.10934E-02  1696   0.253E+00    0.303E-02
DAV:   4    -0.630849934564E+02   -0.59673E-04   -0.11236E-04  1528   0.247E-01
  82 F= -.70014920E+02 E0= -.70007225E+02  d E =-.218325E-03  mag=    -0.0000
       N       E                     dE             d eps       ncg     rms          rms(c)
DAV:   1    -0.630851050832E+02   -0.17130E-03   -0.14180E-04  1600   0.207E-01    0.162E-02
DAV:   2    -0.630852693389E+02   -0.16426E-03   -0.44290E-04  1552   0.566E-01
  83 F= -.70015118E+02 E0= -.70007594E+02  d E =-.415955E-03  mag=    -0.0000
       N       E                     dE             d eps       ncg     rms          rms(c)
DAV:   1    -0.630850776178E+02    0.27465E-04   -0.47615E-04  1496   0.538E-01    0.331E-02
DAV:   2    -0.630873758286E+02   -0.22982E-02   -0.46700E-03  1744   0.182E+00    0.336E-01
DAV:   3    -0.630850910591E+02    0.22848E-02   -0.46563E-03  1672   0.167E+00    0.531E-02
DAV:   4    -0.630850623965E+02    0.28663E-04   -0.12458E-04  1480   0.388E-01
  84 F= -.70014950E+02 E0= -.70007194E+02  d E =-.248122E-03  mag=    -0.0000
       N       E                     dE             d eps       ncg     rms          rms(c)
DAV:   1    -0.630850988401E+02   -0.77810E-05   -0.26154E-05  1488   0.971E-02    0.706E-03
DAV:   2    -0.630851189784E+02   -0.20138E-04   -0.72173E-05  1472   0.201E-01
  85 F= -.70014977E+02 E0= -.70007157E+02  d E =-.274831E-03  mag=    -0.0000
       N       E                     dE             d eps       ncg     rms          rms(c)
DAV:   1    -0.630859598021E+02   -0.86096E-03   -0.67390E-02  2472   0.800E-01    0.259E-02
DAV:   2    -0.630860815475E+02   -0.12175E-03   -0.12360E-03  2816   0.260E-01
  86 F= -.70015357E+02 E0= -.70007566E+02  d E =-.380195E-03  mag=    -0.0000
       N       E                     dE             d eps       ncg     rms          rms(c)
DAV:   1    -0.630874997956E+02   -0.15400E-02   -0.36451E-01  2464   0.188E+00    0.880E-02
DAV:   2    -0.631025259780E+02   -0.15026E-01   -0.35246E-02  4224   0.454E+00    0.830E-01
DAV:   3    -0.630878334823E+02    0.14692E-01   -0.26883E-02  3824   0.388E+00    0.758E-02
DAV:   4    -0.630880275421E+02   -0.19406E-03   -0.14922E-03  2952   0.537E-01
  87 F= -.70015956E+02 E0= -.70007978E+02  d E =-.978881E-03  mag=    -0.0000
       N       E                     dE             d eps       ncg     rms          rms(c)
DAV:   1    -0.630882148947E+02   -0.38141E-03   -0.14453E+00  2448   0.368E+00    0.140E-01
DAV:   2    -0.630964185625E+02   -0.82037E-02   -0.35754E-02  4288   0.317E+00    0.572E-01
DAV:   3    -0.630907248693E+02    0.56937E-02   -0.16278E-02  4240   0.286E+00    0.147E-01
DAV:   4    -0.630907206291E+02    0.42402E-05   -0.19694E-03  2544   0.954E-01
  88 F= -.70015998E+02 E0= -.70008847E+02  d E =-.102113E-02  mag=    -0.0000
       N       E                     dE             d eps       ncg     rms          rms(c)
DAV:   1    -0.630910403609E+02   -0.31549E-03   -0.14995E-02  3448   0.870E-01    0.988E-02
DAV:   2    -0.630923750235E+02   -0.13347E-02   -0.39273E-03  2576   0.196E+00    0.255E-01
DAV:   3    -0.630916338528E+02    0.74117E-03   -0.61175E-03  1808   0.201E+00    0.200E-01
DAV:   4    -0.630909289547E+02    0.70490E-03   -0.17610E-03  1552   0.114E+00    0.586E-02
DAV:   5    -0.630909263717E+02    0.25829E-05   -0.39718E-04  1608   0.554E-01
  89 F= -.70015854E+02 E0= -.70008457E+02  d E =0.143861E-03  mag=    -0.0000
       N       E                     dE             d eps       ncg     rms          rms(c)
DAV:   1    -0.630908736304E+02    0.55324E-04   -0.30208E-04  1408   0.433E-01    0.128E-02
DAV:   2    -0.630909054037E+02   -0.31773E-04   -0.13903E-04  1504   0.254E-01
  90 F= -.70015846E+02 E0= -.70008327E+02  d E =0.151688E-03  mag=    -0.0000
       N       E                     dE             d eps       ncg     rms          rms(c)
DAV:   1    -0.630909099543E+02   -0.36324E-04   -0.19290E-04  1488   0.331E-01    0.264E-02
DAV:   2    -0.630929561322E+02   -0.20462E-02   -0.50468E-03  1648   0.174E+00    0.312E-01
DAV:   3    -0.630908640645E+02    0.20921E-02   -0.39898E-03  1584   0.156E+00    0.193E-02
DAV:   4    -0.630908979499E+02   -0.33885E-04   -0.26392E-05  1400   0.147E-01
  91 F= -.70015826E+02 E0= -.70008273E+02  d E =0.171659E-03  mag=    -0.0000
       N       E                     dE             d eps       ncg     rms          rms(c)
DAV:   1    -0.630911265026E+02   -0.26244E-03   -0.18481E-03  2384   0.156E-01    0.103E-02
DAV:   2    -0.630912029283E+02   -0.76426E-04   -0.16152E-04  1584   0.350E-01
  92 F= -.70016057E+02 E0= -.70008441E+02  d E =-.230966E-03  mag=    -0.0000
       N       E                     dE             d eps       ncg     rms          rms(c)
DAV:   1    -0.630916878538E+02   -0.56135E-03   -0.16033E-02  3264   0.517E-01    0.232E-02
DAV:   2    -0.630919774935E+02   -0.28964E-03   -0.72942E-04  1616   0.688E-01    0.118E-01
DAV:   3    -0.630916960222E+02    0.28147E-03   -0.63654E-04  1488   0.625E-01    0.307E-02
DAV:   4    -0.630916974015E+02   -0.13793E-05   -0.82859E-05  1408   0.264E-01
  93 F= -.70016333E+02 E0= -.70008726E+02  d E =-.507124E-03  mag=    -0.0000
       N       E                     dE             d eps       ncg     rms          rms(c)
DAV:   1    -0.630923707693E+02   -0.67475E-03   -0.62246E-02  2464   0.756E-01    0.366E-02
DAV:   2    -0.630929434898E+02   -0.57272E-03   -0.17649E-03  2144   0.951E-01    0.167E-01
DAV:   3    -0.630924052410E+02    0.53825E-03   -0.14185E-03  1648   0.905E-01    0.321E-02
DAV:   4    -0.630924441090E+02   -0.38868E-04   -0.26485E-04  1384   0.289E-01
  94 F= -.70016659E+02 E0= -.70008968E+02  d E =-.833023E-03  mag=    -0.0000
       N       E                     dE             d eps       ncg     rms          rms(c)
DAV:   1    -0.630926777104E+02   -0.27247E-03   -0.92120E-03  3360   0.439E-01    0.298E-02
DAV:   2    -0.630928128391E+02   -0.13513E-03   -0.40130E-04  1600   0.716E-01
  95 F= -.70017026E+02 E0= -.70008907E+02  d E =-.366520E-03  mag=    -0.0000
       N       E                     dE             d eps       ncg     rms          rms(c)
DAV:   1    -0.630929715155E+02   -0.29381E-03   -0.74032E-02  3304   0.102E+00    0.470E-02
DAV:   2    -0.630966468833E+02   -0.36754E-02   -0.89445E-03  2000   0.228E+00    0.421E-01
DAV:   3    -0.630929272177E+02    0.37197E-02   -0.70471E-03  1840   0.205E+00    0.317E-02
DAV:   4    -0.630930145017E+02   -0.87284E-04   -0.39754E-04  1656   0.326E-01
  96 F= -.70017229E+02 E0= -.70009835E+02  d E =-.569889E-03  mag=    -0.0000
       N       E                     dE             d eps       ncg     rms          rms(c)
DAV:   1    -0.630930643057E+02   -0.13709E-03   -0.15894E-02  3312   0.520E-01    0.279E-02
DAV:   2    -0.630931979950E+02   -0.13369E-03   -0.41453E-04  1648   0.678E-01
  97 F= -.70017418E+02 E0= -.70010412E+02  d E =-.758484E-03  mag=    -0.0000
       N       E                     dE             d eps       ncg     rms          rms(c)
DAV:   1    -0.630933459602E+02   -0.28165E-03   -0.13319E-02  3456   0.701E-01    0.477E-02
DAV:   2    -0.630998867950E+02   -0.65408E-02   -0.14175E-02  2064   0.300E+00    0.564E-01
DAV:   3    -0.630932465430E+02    0.66403E-02   -0.12323E-02  1744   0.268E+00    0.287E-02
DAV:   4    -0.630933247635E+02   -0.78220E-04   -0.19389E-04  1512   0.245E-01
  98 F= -.70017365E+02 E0= -.70009701E+02  d E =0.529306E-04  mag=    -0.0000
       N       E                     dE             d eps       ncg     rms          rms(c)
DAV:   1    -0.630936142220E+02   -0.36768E-03   -0.22326E-02  2480   0.498E-01    0.207E-02
DAV:   2    -0.630937346099E+02   -0.12039E-03   -0.39940E-04  1664   0.463E-01
  99 F= -.70017541E+02 E0= -.70009709E+02  d E =-.123589E-03  mag=    -0.0000
