<?xml version="1.0" encoding="ISO-8859-1"?>
<modeling>
 <generator>
  <i name="program" type="string">vasp </i>
  <i name="version" type="string">6.3.2  </i>
  <i name="subversion" type="string">27Jun22 (build Aug 17 2022 15:43:34) complex                          parallel </i>
  <i name="platform" type="string">tv2STDVTST </i>
  <i name="date" type="string">2025 02 04 </i>
  <i name="time" type="string">11:43:01 </i>
 </generator>
 <incar>
  <i type="int" name="ISTART">     0</i>
  <i type="string" name="PREC">Normal</i>
  <i type="int" name="ISPIN">     2</i>
  <i type="int" name="ICHARG">     2</i>
  <i type="int" name="IBRION">     2</i>
  <i name="EDIFF">      0.00020000</i>
  <i name="EDIFFG">     -0.03000000</i>
  <i type="int" name="NSW">   800</i>
  <i type="int" name="ISIF">     2</i>
  <i type="int" name="ISYM">     1</i>
  <i name="ENCUT">    400.00000000</i>
  <i name="POTIM">      0.50000000</i>
  <i type="logical" name="LREAL"> F  </i>
  <i type="int" name="ISMEAR">     1</i>
  <i name="SIGMA">      0.20000000</i>
  <i type="logical" name="LWAVE"> F  </i>
  <i type="logical" name="LCHARG"> F  </i>
  <i type="string" name="GGA">PE</i>
  <i type="int" name="IVDW">    11</i>
 </incar>
 <primitive_cell>
  <structure name="primitive_cell" >
   <crystal>
    <varray name="basis" >
     <v>       3.63000011       0.00000000       0.00000000 </v>
     <v>       0.00000000       3.63000011       0.00000000 </v>
     <v>       0.00000000       0.00000000      27.70499992 </v>
    </varray>
    <i name="volume">    365.06603650 </i>
    <varray name="rec_basis" >
     <v>       0.27548208       0.00000000       0.00000000 </v>
     <v>       0.00000000       0.27548208       0.00000000 </v>
     <v>       0.00000000       0.00000000       0.03609457 </v>
    </varray>
   </crystal>
   <varray name="positions" >
    <v>       0.00000000       0.00000000       0.00000000 </v>
    <v>       0.50000000       0.50000000       0.00000000 </v>
    <v>       0.00000000       0.50000000       0.06551164 </v>
    <v>       0.50000000       0.00000000       0.06551164 </v>
    <v>       0.00000000       0.00000000       0.12876120 </v>
    <v>       0.50000000       0.50000000       0.12876120 </v>
    <v>       0.00000000       0.50000000       0.19193187 </v>
    <v>       0.50000000       0.00000000       0.19193187 </v>
    <v>       0.00000000       0.00000000       0.25406550 </v>
    <v>       0.50000000       0.50000000       0.25406550 </v>
    <v>       0.00000000       0.50000000       0.31747855 </v>
    <v>       0.50000000       0.00000000       0.31747855 </v>
    <v>       0.00000000       0.00000000       0.38132233 </v>
    <v>       0.50000000       0.50000000       0.38132233 </v>
    <v>       0.00000000       0.50000000       0.44440075 </v>
    <v>       0.50000000       0.00000000       0.44440075 </v>
    <v>       0.75000000       0.25000000       0.50150658 </v>
    <v>       0.75000000       0.39531726       0.52054652 </v>
   </varray>
  </structure>
  <varray name="primitive_index" >
   <v type="int" >        1 </v>
   <v type="int" >        2 </v>
   <v type="int" >        3 </v>
   <v type="int" >        4 </v>
   <v type="int" >        5 </v>
   <v type="int" >        6 </v>
   <v type="int" >        7 </v>
   <v type="int" >        8 </v>
   <v type="int" >        9 </v>
   <v type="int" >       10 </v>
   <v type="int" >       11 </v>
   <v type="int" >       12 </v>
   <v type="int" >       13 </v>
   <v type="int" >       14 </v>
   <v type="int" >       15 </v>
   <v type="int" >       16 </v>
   <v type="int" >       17 </v>
   <v type="int" >       18 </v>
  </varray>
 </primitive_cell>
 <kpoints>
  <generation param="Monkhorst-Pack">
   <v type="int" name="divisions">       3        3        1 </v>
   <v name="usershift">      0.00000000       0.00000000       0.00000000 </v>
   <v name="genvec1">      0.33333333       0.00000000       0.00000000 </v>
   <v name="genvec2">      0.00000000       0.33333333       0.00000000 </v>
   <v name="genvec3">      0.00000000       0.00000000       1.00000000 </v>
   <v name="shift">      0.00000000       0.00000000       0.00000000 </v>
  </generation>
  <varray name="kpointlist" >
   <v>       0.00000000       0.00000000       0.00000000 </v>
   <v>       0.33333333       0.00000000       0.00000000 </v>
   <v>       0.00000000       0.33333333       0.00000000 </v>
   <v>       0.33333333       0.33333333       0.00000000 </v>
   <v>      -0.33333333       0.33333333       0.00000000 </v>
  </varray>
  <varray name="weights" >
   <v>       0.11111111 </v>
   <v>       0.22222222 </v>
   <v>       0.22222222 </v>
   <v>       0.22222222 </v>
   <v>       0.22222222 </v>
  </varray>
 </kpoints>
 <parameters>
  <separator name="general" >
   <i type="string" name="SYSTEM">unknown system</i>
   <i type="logical" name="LCOMPAT"> F  </i>
  </separator>
  <separator name="electronic" >
   <i type="string" name="PREC">normal</i>
   <i name="ENMAX">    400.00000000</i>
   <i name="ENAUG">    586.98000000</i>
   <i name="EDIFF">      0.00020000</i>
   <i type="int" name="IALGO">    38</i>
   <i type="int" name="IWAVPR">    11</i>
   <i type="int" name="NBANDS">   116</i>
   <i type="int" name="NBANDSLOW">    -1</i>
   <i type="int" name="NBANDSHIGH">    -1</i>
   <i name="NELECT">    178.00000000</i>
   <i type="int" name="TURBO">     0</i>
   <i type="int" name="IRESTART">     0</i>
   <i type="int" name="NREBOOT">     0</i>
   <i type="int" name="NMIN">     0</i>
   <i name="EREF">      0.00000000</i>
   <separator name="electronic smearing" >
    <i type="int" name="ISMEAR">     1</i>
    <i name="SIGMA">      0.20000000</i>
    <i name="KSPACING">      0.50000000</i>
    <i type="logical" name="KGAMMA"> T  </i>
    <i type="logical" name="KBLOWUP"> T  </i>
   </separator>
   <separator name="electronic projectors" >
    <i type="logical" name="LREAL"> F  </i>
    <v name="ROPT">      0.00000000      0.00000000</v>
    <i type="int" name="LMAXPAW">  -100</i>
    <i type="int" name="LMAXMIX">     2</i>
    <i type="logical" name="NLSPLINE"> F  </i>
   </separator>
   <separator name="electronic startup" >
    <i type="int" name="ISTART">     0</i>
    <i type="int" name="ICHARG">     2</i>
    <i type="int" name="INIWAV">     1</i>
   </separator>
   <separator name="electronic spin" >
    <i type="int" name="ISPIN">     2</i>
    <i type="logical" name="LNONCOLLINEAR"> F  </i>
    <v name="MAGMOM">      1.00000000      1.00000000      1.00000000      1.00000000      1.00000000      1.00000000      1.00000000      1.00000000      1.00000000      1.00000000      1.00000000      1.00000000      1.00000000      1.00000000      1.00000000      1.00000000      1.00000000      1.00000000</v>
    <i name="NUPDOWN">     -1.00000000</i>
    <i type="logical" name="LSORBIT"> F  </i>
    <v name="SAXIS">      0.00000000      0.00000000      1.00000000</v>
    <i type="logical" name="LSPIRAL"> F  </i>
    <v name="QSPIRAL">      0.00000000      0.00000000      0.00000000</v>
    <i type="logical" name="LZEROZ"> F  </i>
   </separator>
   <separator name="electronic exchange-correlation" >
    <i type="logical" name="LASPH"> F  </i>
    <i type="logical" name="LMETAGGA"> F  </i>
   </separator>
   <separator name="electronic convergence" >
    <i type="int" name="NELM">    60</i>
    <i type="int" name="NELMDL">    -5</i>
    <i type="int" name="NELMIN">     2</i>
    <i name="ENINI">    400.00000000</i>
    <separator name="electronic convergence detail" >
     <i type="logical" name="LDIAG"> T  </i>
     <i type="logical" name="LSUBROT"> F  </i>
     <i name="WEIMIN">      0.00100000</i>
     <i name="EBREAK">      0.00000043</i>
     <i name="DEPER">      0.30000000</i>
     <i type="int" name="NRMM">     4</i>
     <i name="TIME">      0.40000000</i>
    </separator>
   </separator>
   <separator name="electronic mixer" >
    <i name="AMIX">      0.40000000</i>
    <i name="BMIX">      1.00000000</i>
    <i name="AMIN">      0.10000000</i>
    <i name="AMIX_MAG">      1.60000000</i>
    <i name="BMIX_MAG">      1.00000000</i>
    <separator name="electronic mixer details" >
     <i type="int" name="IMIX">     4</i>
     <i type="logical" name="MIXFIRST"> F  </i>
     <i type="int" name="MAXMIX">   -45</i>
     <i name="WC">    100.00000000</i>
     <i type="int" name="INIMIX">     1</i>
     <i type="int" name="MIXPRE">     1</i>
     <i type="int" name="MREMOVE">     5</i>
    </separator>
   </separator>
   <separator name="electronic dipolcorrection" >
    <i type="logical" name="LDIPOL"> F  </i>
    <i type="logical" name="LMONO"> F  </i>
    <i type="int" name="IDIPOL">     0</i>
    <i name="EPSILON">      1.00000000</i>
    <v name="DIPOL">   -100.00000000   -100.00000000   -100.00000000</v>
    <i name="EFIELD">      0.00000000</i>
   </separator>
  </separator>
  <separator name="grids" >
   <i type="int" name="NGX">    18</i>
   <i type="int" name="NGY">    18</i>
   <i type="int" name="NGZ">   140</i>
   <i type="int" name="NGXF">    36</i>
   <i type="int" name="NGYF">    36</i>
   <i type="int" name="NGZF">   280</i>
   <i type="logical" name="ADDGRID"> F  </i>
  </separator>
  <separator name="ionic" >
   <i type="int" name="NSW">   800</i>
   <i type="int" name="IBRION">     2</i>
   <i type="int" name="MDALGO">     0</i>
   <i type="int" name="ISIF">     2</i>
   <i name="PSTRESS">      0.00000000</i>
   <i name="EDIFFG">     -0.03000000</i>
   <i type="int" name="NFREE">     1</i>
   <i name="POTIM">      0.50000000</i>
   <i name="SMASS">     -3.00000000</i>
   <i name="SCALEE">      1.00000000</i>
  </separator>
  <separator name="ionic md" >
   <i name="TEBEG">      0.00010000</i>
   <i name="TEEND">      0.00010000</i>
   <i type="int" name="NBLOCK">     1</i>
   <i type="int" name="KBLOCK">   800</i>
   <i type="int" name="NPACO">   256</i>
   <i name="APACO">     10.00000000</i>
  </separator>
  <separator name="symmetry" >
   <i type="int" name="ISYM">     1</i>
   <i name="SYMPREC">      0.00001000</i>
  </separator>
  <separator name="dos" >
   <i type="int" name="LORBIT">     0</i>
   <v name="RWIGS">     -1.00000000     -1.00000000</v>
   <i type="int" name="NEDOS">   301</i>
   <i name="EMIN">     10.00000000</i>
   <i name="EMAX">    -10.00000000</i>
   <i name="EFERMI">      0.00000000</i>
  </separator>
  <separator name="writing" >
   <i type="int" name="NWRITE">     2</i>
   <i type="logical" name="LWAVE"> F  </i>
   <i type="logical" name="LDOWNSAMPLE"> F  </i>
   <i type="logical" name="LCHARG"> F  </i>
   <i type="logical" name="LPARD"> F  </i>
   <i type="logical" name="LVTOT"> F  </i>
   <i type="logical" name="LVHAR"> F  </i>
   <i type="logical" name="LELF"> F  </i>
   <i type="logical" name="LOPTICS"> F  </i>
   <v name="STM">      0.00000000      0.00000000      0.00000000      0.00000000      0.00000000      0.00000000      0.00000000</v>
  </separator>
  <separator name="performance" >
   <i type="int" name="NPAR">     4</i>
   <i type="int" name="NSIM">     4</i>
   <i type="int" name="NBLK">    -1</i>
   <i type="logical" name="LPLANE"> T  </i>
   <i type="logical" name="LSCALAPACK"> T  </i>
   <i type="logical" name="LSCAAWARE"> F  </i>
   <i type="logical" name="LSCALU"> F  </i>
   <i type="logical" name="LASYNC"> F  </i>
   <i type="logical" name="LORBITALREAL"> F  </i>
  </separator>
  <separator name="miscellaneous" >
   <i type="int" name="IDIOT">     3</i>
   <i type="int" name="PHON_NSTRUCT">    -1</i>
   <i type="logical" name="LMUSIC"> F  </i>
   <v name="POMASS">     63.54600000      1.00000000</v>
   <v name="DARWINR">      0.00000000      0.00000000</v>
   <v name="DARWINV">      1.00000000      1.00000000</v>
   <i type="logical" name="LCORR"> T  </i>
  </separator>
  <i type="logical" name="GGA_COMPAT"> T  </i>
  <i type="logical" name="LBERRY"> F  </i>
  <i type="int" name="ICORELEVEL">     0</i>
  <i type="logical" name="LDAU"> F  </i>
  <i type="int" name="I_CONSTRAINED_M">     0</i>
  <separator name="electronic exchange-correlation" >
   <i type="string" name="GGA">PE</i>
   <i type="int" name="VOSKOWN">     0</i>
   <i type="logical" name="LHFCALC"> F  </i>
   <i type="string" name="PRECFOCK"></i>
   <i type="logical" name="LSYMGRAD"> F  </i>
   <i type="logical" name="LHFONE"> F  </i>
   <i type="logical" name="LRHFCALC"> F  </i>
   <i type="logical" name="LTHOMAS"> F  </i>
   <i type="logical" name="LMODELHF"> F  </i>
   <i type="logical" name="LFOCKACE"> F  </i>
   <i name="ENCUT4O">     -1.00000000</i>
   <i type="int" name="EXXOEP">     0</i>
   <i type="int" name="FOURORBIT">     0</i>
   <i name="AEXX">      0.00000000</i>
   <i name="HFALPHA">      0.00000000</i>
   <i name="MCALPHA">      0.00000000</i>
   <i name="ALDAX">      1.00000000</i>
   <i name="AGGAX">      1.00000000</i>
   <i name="ALDAC">      1.00000000</i>
   <i name="AGGAC">      1.00000000</i>
   <i type="int" name="NKREDX">     1</i>
   <i type="int" name="NKREDY">     1</i>
   <i type="int" name="NKREDZ">     1</i>
   <i type="logical" name="SHIFTRED"> F  </i>
   <i type="logical" name="ODDONLY"> F  </i>
   <i type="logical" name="EVENONLY"> F  </i>
   <i type="int" name="LMAXFOCK">     0</i>
   <i type="int" name="NMAXFOCKAE">     0</i>
   <i type="logical" name="LFOCKAEDFT"> F  </i>
   <i name="HFSCREEN">      0.00000000</i>
   <i name="HFSCREENC">      0.00000000</i>
   <i type="int" name="NBANDSGWLOW">     0</i>
  </separator>
  <separator name="vdW DFT" >
   <i type="logical" name="LUSE_VDW"> F  </i>
   <i name="Zab_VDW">     -0.84910000</i>
   <i name="PARAM1">      0.12340000</i>
   <i name="PARAM2">      1.00000000</i>
   <i name="PARAM3">      0.00000000</i>
  </separator>
  <separator name="model GW" >
   <i type="int" name="MODEL_GW">     0</i>
   <i name="MODEL_EPS0">     12.16886788</i>
   <i name="MODEL_ALPHA">      1.00000000</i>
  </separator>
  <separator name="linear response parameters" >
   <i type="logical" name="LEPSILON"> F  </i>
   <i type="logical" name="LRPA"> F  </i>
   <i type="logical" name="LNABLA"> F  </i>
   <i type="logical" name="LVEL"> F  </i>
   <i name="CSHIFT">      0.10000000</i>
   <i name="OMEGAMAX">     -1.00000000</i>
   <i name="DEG_THRESHOLD">      0.00200000</i>
   <i name="RTIME">     -0.10000000</i>
   <i name="WPLASMAI">      0.00000000</i>
   <v name="DFIELD">      0.00000000      0.00000000      0.00000000</v>
   <v name="WPLASMA">      0.00000000      0.00000000      0.00000000      0.00000000      0.00000000      0.00000000      0.00000000      0.00000000      0.00000000</v>
  </separator>
  <separator name="orbital magnetization" >
   <i type="logical" name="NUCIND"> F  </i>
   <v name="MAGPOS">      0.00000000      0.00000000      0.00000000</v>
   <i type="logical" name="LNICSALL"> T  </i>
   <i type="logical" name="ORBITALMAG"> F  </i>
   <i type="logical" name="LMAGBLOCH"> F  </i>
   <i type="logical" name="LCHIMAG"> F  </i>
   <i type="logical" name="LGAUGE"> T  </i>
   <i type="int" name="MAGATOM">     0</i>
   <v name="MAGDIPOL">      0.00000000      0.00000000      0.00000000</v>
   <v name="AVECCONST">      0.00000000      0.00000000      0.00000000</v>
  </separator>
  <separator name="response functions" >
   <i type="logical" name="LFINITE_TEMPERATURE"> F  </i>
   <i type="logical" name="LADDER"> F  </i>
   <i type="logical" name="LRPAFORCE"> F  </i>
   <i type="logical" name="LFXC"> F  </i>
   <i type="logical" name="LHARTREE"> T  </i>
   <i type="int" name="IBSE">     0</i>
   <v type="int" name="KPOINT">    -1     0     0     0</v>
   <i type="logical" name="LTCTC"> F  </i>
   <i type="logical" name="LTCTE"> F  </i>
   <i type="logical" name="LTETE"> F  </i>
   <i type="logical" name="LTRIPLET"> F  </i>
   <i type="logical" name="LFXCEPS"> F  </i>
   <i type="logical" name="LFXHEG"> F  </i>
   <i type="int" name="NATURALO">     2</i>
   <i type="logical" name="LHOLEGF"> F  </i>
   <i type="logical" name="L2ORDER"> F  </i>
   <i type="logical" name="LDMP1"> F  </i>
   <i type="logical" name="LMP2LT"> F  </i>
   <i type="logical" name="LSMP2LT"> F  </i>
   <i type="logical" name="LGWLF"> F  </i>
   <i name="ENCUTGW">     -2.00000000</i>
   <i name="ENCUTGWSOFT">     -2.00000000</i>
   <i name="ENCUTLF">     -1.00000000</i>
   <i type="logical" name="LESF_SPLINES"> F  </i>
   <i type="int" name="LMAXMP2">    -1</i>
   <i name="SCISSOR">      0.00000000</i>
   <i type="int" name="NOMEGA">     0</i>
   <i type="int" name="NOMEGAR">     0</i>
   <i type="int" name="NBANDSGW">    -1</i>
   <i type="int" name="NBANDSO">    -1</i>
   <i type="int" name="NBANDSV">    -1</i>
   <i type="int" name="NELMGW">     1</i>
   <i type="int" name="NELMHF">     1</i>
   <i type="int" name="DIM">     3</i>
   <i type="int" name="IESPILON">     4</i>
   <i type="int" name="ANTIRES">     0</i>
   <i name="OMEGAMAX">    -30.00000000</i>
   <i name="OMEGAMIN">    -30.00000000</i>
   <i name="OMEGATL">   -200.00000000</i>
   <i type="int" name="OMEGAGRID">     0</i>
   <i name="CSHIFT">     -0.10000000</i>
   <i type="logical" name="LSELFENERGY"> F  </i>
   <i type="logical" name="LSPECTRAL"> F  </i>
   <i type="logical" name="LSPECTRALGW"> F  </i>
   <i type="logical" name="LSINGLES"> F  </i>
   <i type="logical" name="LFERMIGW"> F  </i>
   <i type="logical" name="ODDONLYGW"> F  </i>
   <i type="logical" name="EVENONLYGW"> F  </i>
   <i type="int" name="NKREDLFX">     1</i>
   <i type="int" name="NKREDLFY">     1</i>
   <i type="int" name="NKREDLFZ">     1</i>
   <i type="int" name="MAXMEM">  2800</i>
   <i type="int" name="TELESCOPE">     0</i>
   <i type="int" name="NTAUPAR">    -1</i>
   <i type="int" name="NOMEGAPAR">    -1</i>
   <i name="DAMP_NEWTON">      0.80000001</i>
   <i name="LAMBDA">      1.00000000</i>
  </separator>
  <separator name="External order field" >
   <i name="OFIELD_KAPPA">      0.00000000</i>
   <v name="OFIELD_K">      0.00000000      0.00000000      0.00000000</v>
   <i name="OFIELD_Q6_NEAR">      0.00000000</i>
   <i name="OFIELD_Q6_FAR">      0.00000000</i>
   <i name="OFIELD_A">      0.00000000</i>
  </separator>
  <separator name="optional k-points parameters" >
   <i type="int" name="KPOINTS_OPT_MODE">     1</i>
   <i type="logical" name="LKPOINTS_OPT"> F  </i>
  </separator>
 </parameters>
 <atominfo>
  <atoms>      18 </atoms>
  <types>       2 </types>
  <array name="atoms" >
   <dimension dim="1">ion</dimension>
   <field type="string">element</field>
   <field type="int">atomtype</field>
   <set>
    <rc><c>Cu</c><c>   1</c></rc>
    <rc><c>Cu</c><c>   1</c></rc>
    <rc><c>Cu</c><c>   1</c></rc>
    <rc><c>Cu</c><c>   1</c></rc>
    <rc><c>Cu</c><c>   1</c></rc>
    <rc><c>Cu</c><c>   1</c></rc>
    <rc><c>Cu</c><c>   1</c></rc>
    <rc><c>Cu</c><c>   1</c></rc>
    <rc><c>Cu</c><c>   1</c></rc>
    <rc><c>Cu</c><c>   1</c></rc>
    <rc><c>Cu</c><c>   1</c></rc>
    <rc><c>Cu</c><c>   1</c></rc>
    <rc><c>Cu</c><c>   1</c></rc>
    <rc><c>Cu</c><c>   1</c></rc>
    <rc><c>Cu</c><c>   1</c></rc>
    <rc><c>Cu</c><c>   1</c></rc>
    <rc><c>H </c><c>   2</c></rc>
    <rc><c>H </c><c>   2</c></rc>
   </set>
  </array>
  <array name="atomtypes" >
   <dimension dim="1">type</dimension>
   <field type="int">atomspertype</field>
   <field type="string">element</field>
   <field>mass</field>
   <field>valence</field>
   <field type="string">pseudopotential</field>
   <set>
    <rc><c>  16</c><c>Cu</c><c>     63.54600000</c><c>     11.00000000</c><c>  PAW_PBE Cu 22Jun2005                  </c></rc>
    <rc><c>   2</c><c>H </c><c>      1.00000000</c><c>      1.00000000</c><c>  PAW_PBE H 15Jun2001                   </c></rc>
   </set>
  </array>
 </atominfo>
 <structure name="initialpos" >
  <crystal>
   <varray name="basis" >
    <v>       3.63000011       0.00000000       0.00000000 </v>
    <v>       0.00000000       3.63000011       0.00000000 </v>
    <v>       0.00000000       0.00000000      27.70499992 </v>
   </varray>
   <i name="volume">    365.06603650 </i>
   <varray name="rec_basis" >
    <v>       0.27548208       0.00000000       0.00000000 </v>
    <v>       0.00000000       0.27548208       0.00000000 </v>
    <v>       0.00000000       0.00000000       0.03609457 </v>
   </varray>
  </crystal>
  <varray name="positions" >
   <v>       0.00000000       0.00000000       0.00000000 </v>
   <v>       0.50000000       0.50000000       0.00000000 </v>
   <v>       0.00000000       0.50000000       0.06551164 </v>
   <v>       0.50000000       0.00000000       0.06551164 </v>
   <v>       0.00000000       0.00000000       0.12876120 </v>
   <v>       0.50000000       0.50000000       0.12876120 </v>
   <v>       0.00000000       0.50000000       0.19193187 </v>
   <v>       0.50000000       0.00000000       0.19193187 </v>
   <v>       0.00000000       0.00000000       0.25406550 </v>
   <v>       0.50000000       0.50000000       0.25406550 </v>
   <v>       0.00000000       0.50000000       0.31747855 </v>
   <v>       0.50000000       0.00000000       0.31747855 </v>
   <v>       0.00000000       0.00000000       0.38132233 </v>
   <v>       0.50000000       0.50000000       0.38132233 </v>
   <v>       0.00000000       0.50000000       0.44440075 </v>
   <v>       0.50000000       0.00000000       0.44440075 </v>
   <v>       0.75000000       0.25000000       0.50150658 </v>
   <v>       0.75000000       0.39531726       0.52054652 </v>
  </varray>
 </structure>
 <calculation>
  <scstep>
   <time name="dav">    1.43    1.45</time>
   <time name="total">    1.47    1.49</time>
   <energy>
    <i name="alphaZ">    521.04204123 </i>
    <i name="ewald"> 102670.15225648 </i>
    <i name="hartreedc">-124579.25732567 </i>
    <i name="XCdc">    738.46853175 </i>
    <i name="pawpsdc">  19653.14859652 </i>
    <i name="pawaedc"> -21346.34030725 </i>
    <i name="eentropy">     -0.00033214 </i>
    <i name="bandstr">   1729.41984378 </i>
    <i name="atom">  22280.27950853 </i>
    <i name="e_fr_energy">   1666.91281324 </i>
    <i name="e_wo_entrp">   1666.91314538 </i>
    <i name="e_0_energy">   1666.91292395 </i>
   </energy>
  </scstep>
  <scstep>
   <time name="dav">    1.40    1.41</time>
   <time name="total">    1.40    1.41</time>
   <energy>
    <i name="e_fr_energy">    198.58595336 </i>
    <i name="e_wo_entrp">    198.59355491 </i>
    <i name="e_0_energy">    198.58848721 </i>
   </energy>
  </scstep>
  <scstep>
   <time name="dav">    1.42    1.43</time>
   <time name="total">    1.42    1.43</time>
   <energy>
    <i name="e_fr_energy">    -53.37497707 </i>
    <i name="e_wo_entrp">    -53.38308864 </i>
    <i name="e_0_energy">    -53.37768092 </i>
   </energy>
  </scstep>
  <scstep>
   <time name="dav">    1.55    1.56</time>
   <time name="total">    1.55    1.56</time>
   <energy>
    <i name="e_fr_energy">    -68.93780481 </i>
    <i name="e_wo_entrp">    -68.93794324 </i>
    <i name="e_0_energy">    -68.93785096 </i>
   </energy>
  </scstep>
  <scstep>
   <time name="dav">    1.57    1.59</time>
   <time name="total">    1.64    1.65</time>
   <energy>
    <i name="e_fr_energy">    -69.28057146 </i>
    <i name="e_wo_entrp">    -69.28025281 </i>
    <i name="e_0_energy">    -69.28046524 </i>
   </energy>
  </scstep>
  <scstep>
   <time name="dav">    1.53    1.54</time>
   <time name="total">    1.62    1.64</time>
   <energy>
    <i name="e_fr_energy">    -57.94080779 </i>
    <i name="e_wo_entrp">    -57.92594210 </i>
    <i name="e_0_energy">    -57.93585256 </i>
   </energy>
  </scstep>
  <scstep>
   <time name="dav">    1.56    1.58</time>
   <time name="total">    1.66    1.67</time>
   <energy>
    <i name="e_fr_energy">    -51.73755709 </i>
    <i name="e_wo_entrp">    -51.72397665 </i>
    <i name="e_0_energy">    -51.73303028 </i>
   </energy>
  </scstep>
  <scstep>
   <time name="dav">    1.61    1.62</time>
   <time name="total">    1.70    1.71</time>
   <energy>
    <i name="e_fr_energy">    -51.38020224 </i>
    <i name="e_wo_entrp">    -51.38661510 </i>
    <i name="e_0_energy">    -51.38233986 </i>
   </energy>
  </scstep>
  <scstep>
   <time name="dav">    1.75    1.77</time>
   <time name="total">    1.85    1.86</time>
   <energy>
    <i name="e_fr_energy">    -50.94904944 </i>
    <i name="e_wo_entrp">    -50.94102008 </i>
    <i name="e_0_energy">    -50.94637298 </i>
   </energy>
  </scstep>
  <scstep>
   <time name="dav">    2.17    2.19</time>
   <time name="total">    2.26    2.28</time>
   <energy>
    <i name="e_fr_energy">    -50.78679079 </i>
    <i name="e_wo_entrp">    -50.77834273 </i>
    <i name="e_0_energy">    -50.78397477 </i>
   </energy>
  </scstep>
  <scstep>
   <time name="dav">    1.77    1.79</time>
   <time name="total">    1.87    1.89</time>
   <energy>
    <i name="e_fr_energy">    -53.40593211 </i>
    <i name="e_wo_entrp">    -53.43841389 </i>
    <i name="e_0_energy">    -53.41675937 </i>
   </energy>
  </scstep>
  <scstep>
   <time name="dav">    1.96    1.98</time>
   <time name="total">    2.05    2.07</time>
   <energy>
    <i name="e_fr_energy">    -52.43777467 </i>
    <i name="e_wo_entrp">    -52.40700773 </i>
    <i name="e_0_energy">    -52.42751903 </i>
   </energy>
  </scstep>
  <scstep>
   <time name="dav">    1.98    2.00</time>
   <time name="total">    2.08    2.10</time>
   <energy>
    <i name="e_fr_energy">    -53.64163621 </i>
    <i name="e_wo_entrp">    -53.63210615 </i>
    <i name="e_0_energy">    -53.63845952 </i>
   </energy>
  </scstep>
  <scstep>
   <time name="dav">    1.86    1.88</time>
   <time name="total">    1.96    1.98</time>
   <energy>
    <i name="e_fr_energy">    -56.12033558 </i>
    <i name="e_wo_entrp">    -56.11978443 </i>
    <i name="e_0_energy">    -56.12015187 </i>
   </energy>
  </scstep>
  <scstep>
   <time name="dav">    1.66    1.68</time>
   <time name="total">    1.76    1.77</time>
   <energy>
    <i name="e_fr_energy">    -59.00418134 </i>
    <i name="e_wo_entrp">    -58.98661712 </i>
    <i name="e_0_energy">    -58.99832660 </i>
   </energy>
  </scstep>
  <scstep>
   <time name="dav">    1.85    1.87</time>
   <time name="total">    1.94    1.96</time>
   <energy>
    <i name="e_fr_energy">    -59.78843692 </i>
    <i name="e_wo_entrp">    -59.77141270 </i>
    <i name="e_0_energy">    -59.78276218 </i>
   </energy>
  </scstep>
  <scstep>
   <time name="dav">    1.83    1.85</time>
   <time name="total">    1.93    1.95</time>
   <energy>
    <i name="e_fr_energy">    -60.40546314 </i>
    <i name="e_wo_entrp">    -60.38145963 </i>
    <i name="e_0_energy">    -60.39746197 </i>
   </energy>
  </scstep>
  <scstep>
   <time name="dav">    1.61    1.63</time>
   <time name="total">    1.70    1.72</time>
   <energy>
    <i name="e_fr_energy">    -60.79280397 </i>
    <i name="e_wo_entrp">    -60.76604792 </i>
    <i name="e_0_energy">    -60.78388529 </i>
   </energy>
  </scstep>
  <scstep>
   <time name="dav">    1.60    1.62</time>
   <time name="total">    1.70    1.71</time>
   <energy>
    <i name="e_fr_energy">    -61.11151424 </i>
    <i name="e_wo_entrp">    -61.08427550 </i>
    <i name="e_0_energy">    -61.10243466 </i>
   </energy>
  </scstep>
  <scstep>
   <time name="dav">    1.62    1.63</time>
   <time name="total">    1.71    1.73</time>
   <energy>
    <i name="e_fr_energy">    -61.39962539 </i>
    <i name="e_wo_entrp">    -61.37152748 </i>
    <i name="e_0_energy">    -61.39025942 </i>
   </energy>
  </scstep>
  <scstep>
   <time name="dav">    1.62    1.63</time>
   <time name="total">    1.71    1.72</time>
   <energy>
    <i name="e_fr_energy">    -61.69644619 </i>
    <i name="e_wo_entrp">    -61.66285284 </i>
    <i name="e_0_energy">    -61.68524840 </i>
   </energy>
  </scstep>
  <scstep>
   <time name="dav">    1.77    1.78</time>
   <time name="total">    1.87    1.88</time>
   <energy>
    <i name="e_fr_energy">    -61.94897024 </i>
    <i name="e_wo_entrp">    -61.91690532 </i>
    <i name="e_0_energy">    -61.93828193 </i>
   </energy>
  </scstep>
  <scstep>
   <time name="dav">    1.63    1.64</time>
   <time name="total">    1.73    1.74</time>
   <energy>
    <i name="e_fr_energy">    -62.15339667 </i>
    <i name="e_wo_entrp">    -62.11902144 </i>
    <i name="e_0_energy">    -62.14193826 </i>
   </energy>
  </scstep>
  <scstep>
   <time name="dav">    1.71    1.73</time>
   <time name="total">    1.82    1.83</time>
   <energy>
    <i name="e_fr_energy">    -62.39669832 </i>
    <i name="e_wo_entrp">    -62.36218280 </i>
    <i name="e_0_energy">    -62.38519315 </i>
   </energy>
  </scstep>
  <scstep>
   <time name="dav">    1.67    1.68</time>
   <time name="total">    1.77    1.78</time>
   <energy>
    <i name="e_fr_energy">    -62.56751905 </i>
    <i name="e_wo_entrp">    -62.53186492 </i>
    <i name="e_0_energy">    -62.55563434 </i>
   </energy>
  </scstep>
  <scstep>
   <time name="dav">    1.57    1.59</time>
   <time name="total">    1.67    1.68</time>
   <energy>
    <i name="e_fr_energy">    -62.69155281 </i>
    <i name="e_wo_entrp">    -62.65634020 </i>
    <i name="e_0_energy">    -62.67981528 </i>
   </energy>
  </scstep>
  <scstep>
   <time name="dav">    1.52    1.53</time>
   <time name="total">    1.62    1.63</time>
   <energy>
    <i name="e_fr_energy">    -62.74462854 </i>
    <i name="e_wo_entrp">    -62.70981622 </i>
    <i name="e_0_energy">    -62.73302444 </i>
   </energy>
  </scstep>
  <scstep>
   <time name="dav">    1.55    1.56</time>
   <time name="total">    1.65    1.66</time>
   <energy>
    <i name="e_fr_energy">    -62.77821263 </i>
    <i name="e_wo_entrp">    -62.74316413 </i>
    <i name="e_0_energy">    -62.76652980 </i>
   </energy>
  </scstep>
  <scstep>
   <time name="dav">    1.21    1.22</time>
   <time name="total">    1.31    1.33</time>
   <energy>
    <i name="e_fr_energy">    -62.78661956 </i>
    <i name="e_wo_entrp">    -62.75173855 </i>
    <i name="e_0_energy">    -62.77499255 </i>
   </energy>
  </scstep>
  <scstep>
   <time name="dav">    1.14    1.15</time>
   <time name="total">    1.24    1.25</time>
   <energy>
    <i name="e_fr_energy">    -62.78910619 </i>
    <i name="e_wo_entrp">    -62.75401918 </i>
    <i name="e_0_energy">    -62.77741052 </i>
   </energy>
  </scstep>
  <scstep>
   <time name="dav">    1.08    1.08</time>
   <time name="total">    1.17    1.18</time>
   <energy>
    <i name="e_fr_energy">    -62.78977530 </i>
    <i name="e_wo_entrp">    -62.75487769 </i>
    <i name="e_0_energy">    -62.77814276 </i>
   </energy>
  </scstep>
  <scstep>
   <time name="dav">    1.09    1.10</time>
   <time name="total">    1.12    1.13</time>
   <energy>
    <i name="alphaZ">    521.04204123 </i>
    <i name="ewald"> 102670.15225648 </i>
    <i name="hartreedc">-124360.46438335 </i>
    <i name="XCdc">    719.54752315 </i>
    <i name="pawpsdc">  21076.11581562 </i>
    <i name="pawaedc"> -22802.37902379 </i>
    <i name="eentropy">     -0.03488377 </i>
    <i name="bandstr">   -167.04852372 </i>
    <i name="atom">  22280.27950853 </i>
    <i name="e_fr_energy">    -62.78966962 </i>
    <i name="e_wo_entrp">    -62.75478585 </i>
    <i name="e_0_energy">    -62.77804170 </i>
   </energy>
  </scstep>
  <structure>
   <crystal>
    <varray name="basis" >
     <v>       3.63000011       0.00000000       0.00000000 </v>
     <v>       0.00000000       3.63000011       0.00000000 </v>
     <v>       0.00000000       0.00000000      27.70499992 </v>
    </varray>
    <i name="volume">    365.06603650 </i>
    <varray name="rec_basis" >
     <v>       0.27548208       0.00000000       0.00000000 </v>
     <v>       0.00000000       0.27548208       0.00000000 </v>
     <v>       0.00000000       0.00000000       0.03609457 </v>
    </varray>
   </crystal>
   <varray name="positions" >
    <v>       0.00000000       0.00000000       0.00000000 </v>
    <v>       0.50000000       0.50000000       0.00000000 </v>
    <v>       0.00000000       0.50000000       0.06551164 </v>
    <v>       0.50000000       0.00000000       0.06551164 </v>
    <v>       0.00000000       0.00000000       0.12876120 </v>
    <v>       0.50000000       0.50000000       0.12876120 </v>
    <v>       0.00000000       0.50000000       0.19193187 </v>
    <v>       0.50000000       0.00000000       0.19193187 </v>
    <v>       0.00000000       0.00000000       0.25406550 </v>
    <v>       0.50000000       0.50000000       0.25406550 </v>
    <v>       0.00000000       0.50000000       0.31747855 </v>
    <v>       0.50000000       0.00000000       0.31747855 </v>
    <v>       0.00000000       0.00000000       0.38132233 </v>
    <v>       0.50000000       0.50000000       0.38132233 </v>
    <v>       0.00000000       0.50000000       0.44440075 </v>
    <v>       0.50000000       0.00000000       0.44440075 </v>
    <v>       0.75000000       0.25000000       0.50150658 </v>
    <v>       0.75000000       0.39531726       0.52054652 </v>
   </varray>
  </structure>
  <varray name="forces" >
   <v>       0.00132444      -0.00153024       0.24739309 </v>
   <v>      -0.00100585       0.00144537       0.24811716 </v>
   <v>      -0.00051528       0.00012426      -0.23024339 </v>
   <v>      -0.00067587       0.00007631      -0.24074707 </v>
   <v>      -0.00316408       0.00525926       0.01251594 </v>
   <v>       0.00393013      -0.00536867       0.01180324 </v>
   <v>      -0.00801825      -0.00804473      -0.00431778 </v>
   <v>       0.01050523       0.00755865      -0.02083996 </v>
   <v>       0.01046209      -0.01074661       0.05243017 </v>
   <v>      -0.01379377       0.01133334       0.01124557 </v>
   <v>      -0.00751371       0.00000121       0.03367865 </v>
   <v>       0.00326793       0.00108976      -0.01655052 </v>
   <v>       0.03247413      -0.02984682       0.02962577 </v>
   <v>      -0.03857159       0.02325957      -0.03477474 </v>
   <v>       0.05579850       0.08878052      -0.22547285 </v>
   <v>      -0.16300069      -0.14785870      -0.46657082 </v>
   <v>       0.07303493      -0.70442507      -0.40197901 </v>
   <v>       0.04546169       0.76889259       0.99468653 </v>
  </varray>
  <varray name="stress" >
   <v>     -21.08728543      -0.43381996       1.05060476 </v>
   <v>      -0.43381994     -19.16010354       2.18621002 </v>
   <v>       1.05060472       2.18621008      -5.68833300 </v>
  </varray>
  <energy>
   <i name="e_fr_energy">    -69.72187841 </i>
   <i name="e_wo_entrp">    -69.68699464 </i>
   <i name="e_0_energy">    -69.71025049 </i>
  </energy>
  <time name="totalsc">   56.20   56.69</time>
 </calculation>
 <calculation>
  <scstep>
   <time name="dav">    1.47    1.48</time>
   <time name="total">    1.57    1.59</time>
   <energy>
    <i name="alphaZ">    521.04204123 </i>
    <i name="ewald"> 102879.43357627 </i>
    <i name="hartreedc">-124570.53857590 </i>
    <i name="XCdc">    719.53924341 </i>
    <i name="pawpsdc">  21076.47206908 </i>
    <i name="pawaedc"> -22802.78754995 </i>
    <i name="eentropy">     -0.03834885 </i>
    <i name="bandstr">   -166.17275757 </i>
    <i name="atom">  22280.27950853 </i>
    <i name="e_fr_energy">    -62.77079374 </i>
    <i name="e_wo_entrp">    -62.73244489 </i>
    <i name="e_0_energy">    -62.75801079 </i>
   </energy>
  </scstep>
  <scstep>
   <time name="dav">    1.89    1.90</time>
   <time name="total">    1.99    2.01</time>
   <energy>
    <i name="e_fr_energy">    -62.78993550 </i>
    <i name="e_wo_entrp">    -62.75555616 </i>
    <i name="e_0_energy">    -62.77847572 </i>
   </energy>
  </scstep>
  <scstep>
   <time name="dav">    1.66    1.67</time>
   <time name="total">    1.76    1.77</time>
   <energy>
    <i name="e_fr_energy">    -62.81705195 </i>
    <i name="e_wo_entrp">    -62.79074785 </i>
    <i name="e_0_energy">    -62.80828392 </i>
   </energy>
  </scstep>
  <scstep>
   <time name="dav">    1.76    1.77</time>
   <time name="total">    1.86    1.88</time>
   <energy>
    <i name="e_fr_energy">    -62.78509591 </i>
    <i name="e_wo_entrp">    -62.75293707 </i>
    <i name="e_0_energy">    -62.77437629 </i>
   </energy>
  </scstep>
  <scstep>
   <time name="dav">    1.72    1.74</time>
   <time name="total">    1.82    1.84</time>
   <energy>
    <i name="e_fr_energy">    -62.78538723 </i>
    <i name="e_wo_entrp">    -62.73852877 </i>
    <i name="e_0_energy">    -62.76976775 </i>
   </energy>
  </scstep>
  <scstep>
   <time name="dav">    1.98    2.00</time>
   <time name="total">    2.08    2.10</time>
   <energy>
    <i name="e_fr_energy">    -62.78183627 </i>
    <i name="e_wo_entrp">    -62.74884619 </i>
    <i name="e_0_energy">    -62.77083958 </i>
   </energy>
  </scstep>
  <scstep>
   <time name="dav">    1.94    1.95</time>
   <time name="total">    2.04    2.05</time>
   <energy>
    <i name="e_fr_energy">    -62.78102076 </i>
    <i name="e_wo_entrp">    -62.74385324 </i>
    <i name="e_0_energy">    -62.76863159 </i>
   </energy>
  </scstep>
  <scstep>
   <time name="dav">    1.49    1.50</time>
   <time name="total">    1.52    1.54</time>
   <energy>
    <i name="alphaZ">    521.04204123 </i>
    <i name="ewald"> 102879.43357627 </i>
    <i name="hartreedc">-124564.41189342 </i>
    <i name="XCdc">    719.38741385 </i>
    <i name="pawpsdc">  21079.15203834 </i>
    <i name="pawaedc"> -22805.52553276 </i>
    <i name="eentropy">     -0.03721418 </i>
    <i name="bandstr">   -172.10106221 </i>
    <i name="atom">  22280.27950853 </i>
    <i name="e_fr_energy">    -62.78112433 </i>
    <i name="e_wo_entrp">    -62.74391016 </i>
    <i name="e_0_energy">    -62.76871961 </i>
   </energy>
  </scstep>
  <structure>
   <crystal>
    <varray name="basis" >
     <v>       3.63000011       0.00000000       0.00000000 </v>
     <v>       0.00000000       3.63000011       0.00000000 </v>
     <v>       0.00000000       0.00000000      27.70499992 </v>
    </varray>
    <i name="volume">    365.06603650 </i>
    <varray name="rec_basis" >
     <v>       0.27548208       0.00000000       0.00000000 </v>
     <v>       0.00000000       0.27548208       0.00000000 </v>
     <v>       0.00000000       0.00000000       0.03609457 </v>
    </varray>
   </crystal>
   <varray name="positions" >
    <v>       0.00001760      -0.00002034       0.00043079 </v>
    <v>       0.49998663       0.50001921       0.00043205 </v>
    <v>      -0.00000685       0.50000165       0.06511072 </v>
    <v>       0.49999102       0.00000101       0.06509243 </v>
    <v>      -0.00004205       0.00006990       0.12878299 </v>
    <v>       0.50005223       0.49992865       0.12878175 </v>
    <v>      -0.00010656       0.49989309       0.19192435 </v>
    <v>       0.50013961       0.00010045       0.19189558 </v>
    <v>       0.00013904      -0.00014282       0.25415680 </v>
    <v>       0.49981668       0.50015062       0.25408508 </v>
    <v>      -0.00009986       0.50000002       0.31753720 </v>
    <v>       0.50004343       0.00001448       0.31744973 </v>
    <v>       0.00043158      -0.00039666       0.38137391 </v>
    <v>       0.49948738       0.50030912       0.38126177 </v>
    <v>       0.00074156       0.50117989       0.44400813 </v>
    <v>       0.49783372      -0.00196504       0.44358831 </v>
    <v>       0.75097063       0.24063820       0.50080661 </v>
    <v>       0.75060419       0.40553583       0.52227857 </v>
   </varray>
  </structure>
  <varray name="forces" >
   <v>      -0.00008811      -0.00080882       0.15288048 </v>
   <v>      -0.00047447       0.00051010       0.15388655 </v>
   <v>      -0.00059216       0.00048437      -0.10067852 </v>
   <v>      -0.00144352      -0.00057206      -0.10890168 </v>
   <v>       0.00127050       0.00028745      -0.03677950 </v>
   <v>      -0.00125024      -0.00057497      -0.03708177 </v>
   <v>      -0.00383591      -0.00379404       0.00388041 </v>
   <v>       0.00497834       0.00331974      -0.00816170 </v>
   <v>       0.00362064      -0.00499259       0.03066744 </v>
   <v>      -0.00805391       0.00505473       0.00290408 </v>
   <v>      -0.01346048      -0.00588103       0.02448977 </v>
   <v>       0.00725982       0.00569980      -0.00805174 </v>
   <v>      -0.00182933      -0.00432669      -0.04770757 </v>
   <v>      -0.01248281      -0.00778154      -0.09149566 </v>
   <v>      -0.03562059      -0.00005054      -0.08015418 </v>
   <v>      -0.06076272      -0.04850200      -0.28485989 </v>
   <v>       0.07129131       0.67155080       0.85558300 </v>
   <v>       0.05147364      -0.60962272      -0.42041953 </v>
  </varray>
  <varray name="stress" >
   <v>     -18.24606087      -0.62436641       1.20687099 </v>
   <v>      -0.62436639     -19.67861299      -1.11876711 </v>
   <v>       1.20687093      -1.11876708      -6.58256941 </v>
  </varray>
  <energy>
   <i name="e_fr_energy">    -69.73577306 </i>
   <i name="e_wo_entrp">    -69.69855888 </i>
   <i name="e_0_energy">    -69.72336833 </i>
  </energy>
  <time name="totalsc">   16.89   17.10</time>
 </calculation>
 <calculation>
  <scstep>
   <time name="dav">    1.49    1.50</time>
   <time name="total">    1.59    1.61</time>
   <energy>
    <i name="alphaZ">    521.04204123 </i>
    <i name="ewald"> 102778.46815061 </i>
    <i name="hartreedc">-124463.18506028 </i>
    <i name="XCdc">    719.39620434 </i>
    <i name="pawpsdc">  21079.43048665 </i>
    <i name="pawaedc"> -22805.83587421 </i>
    <i name="eentropy">     -0.03555626 </i>
    <i name="bandstr">   -172.37177338 </i>
    <i name="atom">  22280.27950853 </i>
    <i name="e_fr_energy">    -62.81187277 </i>
    <i name="e_wo_entrp">    -62.77631651 </i>
    <i name="e_0_energy">    -62.80002068 </i>
   </energy>
  </scstep>
  <scstep>
   <time name="dav">    2.14    2.16</time>
   <time name="total">    2.24    2.26</time>
   <energy>
    <i name="e_fr_energy">    -62.82079007 </i>
    <i name="e_wo_entrp">    -62.78481054 </i>
    <i name="e_0_energy">    -62.80879689 </i>
   </energy>
  </scstep>
  <scstep>
   <time name="dav">    2.03    2.05</time>
   <time name="total">    2.13    2.15</time>
   <energy>
    <i name="e_fr_energy">    -62.81721810 </i>
    <i name="e_wo_entrp">    -62.78089908 </i>
    <i name="e_0_energy">    -62.80511176 </i>
   </energy>
  </scstep>
  <scstep>
   <time name="dav">    1.56    1.57</time>
   <time name="total">    1.66    1.68</time>
   <energy>
    <i name="e_fr_energy">    -62.81656541 </i>
    <i name="e_wo_entrp">    -62.78348147 </i>
    <i name="e_0_energy">    -62.80553743 </i>
   </energy>
  </scstep>
  <scstep>
   <time name="dav">    1.72    1.73</time>
   <time name="total">    1.82    1.83</time>
   <energy>
    <i name="e_fr_energy">    -62.81675841 </i>
    <i name="e_wo_entrp">    -62.77605174 </i>
    <i name="e_0_energy">    -62.80318952 </i>
   </energy>
  </scstep>
  <scstep>
   <time name="dav">    1.54    1.56</time>
   <time name="total">    1.65    1.66</time>
   <energy>
    <i name="e_fr_energy">    -62.81601633 </i>
    <i name="e_wo_entrp">    -62.78138111 </i>
    <i name="e_0_energy">    -62.80447125 </i>
   </energy>
  </scstep>
  <scstep>
   <time name="dav">    1.40    1.41</time>
   <time name="total">    1.43    1.44</time>
   <energy>
    <i name="alphaZ">    521.04204123 </i>
    <i name="ewald"> 102778.46815061 </i>
    <i name="hartreedc">-124464.80841170 </i>
    <i name="XCdc">    719.45974417 </i>
    <i name="pawpsdc">  21077.90864878 </i>
    <i name="pawaedc"> -22804.27249083 </i>
    <i name="eentropy">     -0.03618070 </i>
    <i name="bandstr">   -170.85684298 </i>
    <i name="atom">  22280.27950853 </i>
    <i name="e_fr_energy">    -62.81583289 </i>
    <i name="e_wo_entrp">    -62.77965219 </i>
    <i name="e_0_energy">    -62.80377266 </i>
   </energy>
  </scstep>
  <structure>
   <crystal>
    <varray name="basis" >
     <v>       3.63000011       0.00000000       0.00000000 </v>
     <v>       0.00000000       3.63000011       0.00000000 </v>
     <v>       0.00000000       0.00000000      27.70499992 </v>
    </varray>
    <i name="volume">    365.06603650 </i>
    <varray name="rec_basis" >
     <v>       0.27548208       0.00000000       0.00000000 </v>
     <v>       0.00000000       0.27548208       0.00000000 </v>
     <v>       0.00000000       0.00000000       0.03609457 </v>
    </varray>
   </crystal>
   <varray name="positions" >
    <v>       0.00000913      -0.00001054       0.00022336 </v>
    <v>       0.49999307       0.50000996       0.00022402 </v>
    <v>      -0.00000355       0.50000086       0.06530376 </v>
    <v>       0.49999534       0.00000053       0.06529428 </v>
    <v>      -0.00002180       0.00003624       0.12877250 </v>
    <v>       0.50002708       0.49996300       0.12877185 </v>
    <v>      -0.00005525       0.49994456       0.19192797 </v>
    <v>       0.50007239       0.00005209       0.19191305 </v>
    <v>       0.00007209      -0.00007405       0.25411284 </v>
    <v>       0.49990495       0.50007810       0.25407566 </v>
    <v>      -0.00005178       0.50000001       0.31750896 </v>
    <v>       0.50002252       0.00000751       0.31746361 </v>
    <v>       0.00022378      -0.00020567       0.38134907 </v>
    <v>       0.49973421       0.50016028       0.38129093 </v>
    <v>       0.00038450       0.50061178       0.44419718 </v>
    <v>       0.49887678      -0.00101888       0.44397950 </v>
    <v>       0.75050328       0.24514587       0.50114364 </v>
    <v>       0.75031327       0.40061563       0.52144460 </v>
   </varray>
  </structure>
  <varray name="forces" >
   <v>       0.00082303      -0.00125789       0.19530171 </v>
   <v>      -0.00074765       0.00104175       0.19573125 </v>
   <v>      -0.00045568       0.00025587      -0.16720940 </v>
   <v>      -0.00089326      -0.00027300      -0.17674101 </v>
   <v>      -0.00096667       0.00314012      -0.01020015 </v>
   <v>       0.00192878      -0.00337371      -0.01127435 </v>
   <v>      -0.00668238      -0.00682412       0.00243135 </v>
   <v>       0.00913555       0.00620865      -0.01343845 </v>
   <v>       0.00855172      -0.00908408       0.05016039 </v>
   <v>      -0.01245664       0.00951905       0.01267636 </v>
   <v>      -0.01116466      -0.00312033       0.03768979 </v>
   <v>       0.00625732       0.00384160      -0.00812592 </v>
   <v>       0.01744853      -0.01851373      -0.00753706 </v>
   <v>      -0.02702733       0.00892977      -0.06563287 </v>
   <v>       0.00712492       0.04384228      -0.15228351 </v>
   <v>      -0.11471279      -0.09941073      -0.38142448 </v>
   <v>       0.07378336       0.23579935       0.46953274 </v>
   <v>       0.05005385      -0.17072086       0.03034360 </v>
  </varray>
  <varray name="stress" >
   <v>     -20.65975028      -0.54906226       1.14157240 </v>
   <v>      -0.54906227     -20.92405010       0.02231964 </v>
   <v>       1.14157231       0.02231967      -7.67656737 </v>
  </varray>
  <energy>
   <i name="e_fr_energy">    -69.75426025 </i>
   <i name="e_wo_entrp">    -69.71807955 </i>
   <i name="e_0_energy">    -69.74220002 </i>
  </energy>
  <time name="totalsc">   14.78   14.96</time>
 </calculation>
 <calculation>
  <scstep>
   <time name="dav">    1.46    1.47</time>
   <time name="total">    1.56    1.57</time>
   <energy>
    <i name="alphaZ">    521.04204123 </i>
    <i name="ewald"> 102980.52287212 </i>
    <i name="hartreedc">-124666.48975497 </i>
    <i name="XCdc">    719.52351706 </i>
    <i name="pawpsdc">  21077.91350274 </i>
    <i name="pawaedc"> -22804.27480820 </i>
    <i name="eentropy">     -0.03732952 </i>
    <i name="bandstr">   -171.30454498 </i>
    <i name="atom">  22280.27950853 </i>
    <i name="e_fr_energy">    -62.82499599 </i>
    <i name="e_wo_entrp">    -62.78766647 </i>
    <i name="e_0_energy">    -62.81255281 </i>
   </energy>
  </scstep>
  <scstep>
   <time name="dav">    1.96    1.98</time>
   <time name="total">    2.06    2.08</time>
   <energy>
    <i name="e_fr_energy">    -62.83982049 </i>
    <i name="e_wo_entrp">    -62.80477768 </i>
    <i name="e_0_energy">    -62.82813955 </i>
   </energy>
  </scstep>
  <scstep>
   <time name="dav">    1.63    1.64</time>
   <time name="total">    1.73    1.75</time>
   <energy>
    <i name="e_fr_energy">    -62.83922760 </i>
    <i name="e_wo_entrp">    -62.80355587 </i>
    <i name="e_0_energy">    -62.82733702 </i>
   </energy>
  </scstep>
  <scstep>
   <time name="dav">    1.52    1.54</time>
   <time name="total">    1.62    1.64</time>
   <energy>
    <i name="e_fr_energy">    -62.83636244 </i>
    <i name="e_wo_entrp">    -62.79950404 </i>
    <i name="e_0_energy">    -62.82407631 </i>
   </energy>
  </scstep>
  <scstep>
   <time name="dav">    1.57    1.58</time>
   <time name="total">    1.67    1.68</time>
   <energy>
    <i name="e_fr_energy">    -62.83634024 </i>
    <i name="e_wo_entrp">    -62.79914198 </i>
    <i name="e_0_energy">    -62.82394082 </i>
   </energy>
  </scstep>
  <scstep>
   <time name="dav">    1.46    1.48</time>
   <time name="total">    1.50    1.51</time>
   <energy>
    <i name="alphaZ">    521.04204123 </i>
    <i name="ewald"> 102980.52287212 </i>
    <i name="hartreedc">-124665.24601815 </i>
    <i name="XCdc">    719.51090968 </i>
    <i name="pawpsdc">  21085.71939624 </i>
    <i name="pawaedc"> -22812.18756151 </i>
    <i name="eentropy">     -0.03551884 </i>
    <i name="bandstr">   -172.44194128 </i>
    <i name="atom">  22280.27950853 </i>
    <i name="e_fr_energy">    -62.83631198 </i>
    <i name="e_wo_entrp">    -62.80079314 </i>
    <i name="e_0_energy">    -62.82447237 </i>
   </energy>
  </scstep>
  <structure>
   <crystal>
    <varray name="basis" >
     <v>       3.63000011       0.00000000       0.00000000 </v>
     <v>       0.00000000       3.63000011       0.00000000 </v>
     <v>       0.00000000       0.00000000      27.70499992 </v>
    </varray>
    <i name="volume">    365.06603650 </i>
    <varray name="rec_basis" >
     <v>       0.27548208       0.00000000       0.00000000 </v>
     <v>       0.00000000       0.27548208       0.00000000 </v>
     <v>       0.00000000       0.00000000       0.03609457 </v>
    </varray>
   </crystal>
   <varray name="positions" >
    <v>       0.00002277      -0.00002999       0.00062258 </v>
    <v>       0.49998124       0.50002657       0.00062418 </v>
    <v>      -0.00001048       0.50000428       0.06495512 </v>
    <v>       0.49998270      -0.00000254       0.06492674 </v>
    <v>      -0.00004238       0.00008886       0.12876109 </v>
    <v>       0.50006139       0.49990727       0.12875850 </v>
    <v>      -0.00015824       0.49983980       0.19193019 </v>
    <v>       0.50021189       0.00014808       0.19188416 </v>
    <v>       0.00020446      -0.00021362       0.25421125 </v>
    <v>       0.49971624       0.50022455       0.25409978 </v>
    <v>      -0.00020717       0.49996254       0.31758078 </v>
    <v>       0.50010693       0.00005674       0.31744468 </v>
    <v>       0.00052539      -0.00051263       0.38134822 </v>
    <v>       0.49930026       0.50033346       0.38117473 </v>
    <v>       0.00062825       0.50139001       0.44387380 </v>
    <v>       0.49703698      -0.00263197       0.44320599 </v>
    <v>       0.75159647       0.24598096       0.50173320 </v>
    <v>       0.75104330       0.40074489       0.52186180 </v>
   </varray>
  </structure>
  <varray name="forces" >
   <v>      -0.00050876      -0.00078996       0.12241603 </v>
   <v>      -0.00060236      -0.00021682       0.12260823 </v>
   <v>      -0.00045230       0.00028164      -0.06202309 </v>
   <v>      -0.00162365      -0.00130625      -0.06786688 </v>
   <v>       0.00126999      -0.00112340      -0.04671869 </v>
   <v>      -0.00154688       0.00018793      -0.04608963 </v>
   <v>      -0.00316488      -0.00311159       0.00545644 </v>
   <v>       0.00318465       0.00200541      -0.00269066 </v>
   <v>       0.00215388      -0.00343318       0.02149426 </v>
   <v>      -0.00595525       0.00240765       0.00540858 </v>
   <v>      -0.01106179      -0.00656848       0.01166324 </v>
   <v>       0.00484798       0.00468102      -0.00598487 </v>
   <v>      -0.01872292       0.00306713      -0.07211846 </v>
   <v>      -0.00434235      -0.01872294      -0.09813705 </v>
   <v>      -0.02524431      -0.00186237      -0.11497053 </v>
   <v>      -0.05117662      -0.03579702      -0.26135675 </v>
   <v>       0.06562027       0.20295304       0.42093755 </v>
   <v>       0.04732531      -0.14265182       0.06797227 </v>
  </varray>
  <varray name="stress" >
   <v>     -17.07716244      -0.50601324       1.18099697 </v>
   <v>      -0.50601318     -17.28575539       0.09401978 </v>
   <v>       1.18099705       0.09401987      -3.04624704 </v>
  </varray>
  <energy>
   <i name="e_fr_energy">    -69.77910996 </i>
   <i name="e_wo_entrp">    -69.74359111 </i>
   <i name="e_0_energy">    -69.76727034 </i>
  </energy>
  <time name="totalsc">   12.41   12.58</time>
 </calculation>
 <calculation>
  <scstep>
   <time name="dav">    1.48    1.49</time>
   <time name="total">    1.58    1.60</time>
   <energy>
    <i name="alphaZ">    521.04204123 </i>
    <i name="ewald"> 103478.28700194 </i>
    <i name="hartreedc">-125162.74753945 </i>
    <i name="XCdc">    719.69224711 </i>
    <i name="pawpsdc">  21086.83806949 </i>
    <i name="pawaedc"> -22813.36601803 </i>
    <i name="eentropy">     -0.04174311 </i>
    <i name="bandstr">   -172.75843671 </i>
    <i name="atom">  22280.27950853 </i>
    <i name="e_fr_energy">    -62.77486899 </i>
    <i name="e_wo_entrp">    -62.73312589 </i>
    <i name="e_0_energy">    -62.76095462 </i>
   </energy>
  </scstep>
  <scstep>
   <time name="dav">    2.11    2.13</time>
   <time name="total">    2.22    2.23</time>
   <energy>
    <i name="e_fr_energy">    -62.89702569 </i>
    <i name="e_wo_entrp">    -62.87712544 </i>
    <i name="e_0_energy">    -62.89039227 </i>
   </energy>
  </scstep>
  <scstep>
   <time name="dav">    1.85    1.87</time>
   <time name="total">    1.95    1.97</time>
   <energy>
    <i name="e_fr_energy">    -62.87088675 </i>
    <i name="e_wo_entrp">    -62.84238613 </i>
    <i name="e_0_energy">    -62.86138654 </i>
   </energy>
  </scstep>
  <scstep>
   <time name="dav">    1.71    1.73</time>
   <time name="total">    1.81    1.83</time>
   <energy>
    <i name="e_fr_energy">    -62.85242188 </i>
    <i name="e_wo_entrp">    -62.81041674 </i>
    <i name="e_0_energy">    -62.83842016 </i>
   </energy>
  </scstep>
  <scstep>
   <time name="dav">    1.76    1.77</time>
   <time name="total">    1.86    1.87</time>
   <energy>
    <i name="e_fr_energy">    -62.85247996 </i>
    <i name="e_wo_entrp">    -62.81823220 </i>
    <i name="e_0_energy">    -62.84106404 </i>
   </energy>
  </scstep>
  <scstep>
   <time name="dav">    1.66    1.68</time>
   <time name="total">    1.77    1.78</time>
   <energy>
    <i name="e_fr_energy">    -62.85164916 </i>
    <i name="e_wo_entrp">    -62.80953839 </i>
    <i name="e_0_energy">    -62.83761224 </i>
   </energy>
  </scstep>
  <scstep>
   <time name="dav">    1.64    1.66</time>
   <time name="total">    1.75    1.76</time>
   <energy>
    <i name="e_fr_energy">    -62.85020723 </i>
    <i name="e_wo_entrp">    -62.81121213 </i>
    <i name="e_0_energy">    -62.83720886 </i>
   </energy>
  </scstep>
  <scstep>
   <time name="dav">    1.87    1.88</time>
   <time name="total">    1.97    1.98</time>
   <energy>
    <i name="e_fr_energy">    -62.85020635 </i>
    <i name="e_wo_entrp">    -62.81090728 </i>
    <i name="e_0_energy">    -62.83710666 </i>
   </energy>
  </scstep>
  <scstep>
   <time name="dav">    1.40    1.42</time>
   <time name="total">    1.44    1.45</time>
   <energy>
    <i name="alphaZ">    521.04204123 </i>
    <i name="ewald"> 103478.28700194 </i>
    <i name="hartreedc">-125160.53733711 </i>
    <i name="XCdc">    719.65291456 </i>
    <i name="pawpsdc">  21113.96287245 </i>
    <i name="pawaedc"> -22841.04912198 </i>
    <i name="eentropy">     -0.03928672 </i>
    <i name="bandstr">   -174.44875573 </i>
    <i name="atom">  22280.27950853 </i>
    <i name="e_fr_energy">    -62.85016283 </i>
    <i name="e_wo_entrp">    -62.81087610 </i>
    <i name="e_0_energy">    -62.83706725 </i>
   </energy>
  </scstep>
  <structure>
   <crystal>
    <varray name="basis" >
     <v>       3.63000011       0.00000000       0.00000000 </v>
     <v>       0.00000000       3.63000011       0.00000000 </v>
     <v>       0.00000000       0.00000000      27.70499992 </v>
    </varray>
    <i name="volume">    365.06603650 </i>
    <varray name="rec_basis" >
     <v>       0.27548208       0.00000000       0.00000000 </v>
     <v>       0.00000000       0.27548208       0.00000000 </v>
     <v>       0.00000000       0.00000000       0.03609457 </v>
    </varray>
   </crystal>
   <varray name="positions" >
    <v>       0.00005617      -0.00007762       0.00160034 </v>
    <v>       0.49995226       0.50006725       0.00160426 </v>
    <v>      -0.00002747       0.50001267       0.06410123 </v>
    <v>       0.49995173      -0.00001004       0.06402656 </v>
    <v>      -0.00009279       0.00021775       0.12873317 </v>
    <v>       0.50014541       0.49977075       0.12872578 </v>
    <v>      -0.00041047       0.49958321       0.19193563 </v>
    <v>       0.50055355       0.00038319       0.19181341 </v>
    <v>       0.00052865      -0.00055544       0.25445227 </v>
    <v>       0.49925405       0.50058324       0.25415887 </v>
    <v>      -0.00058775       0.49987076       0.31775668 </v>
    <v>       0.50031368       0.00017730       0.31739830 </v>
    <v>       0.00126412      -0.00126445       0.38134612 </v>
    <v>       0.49823744       0.50075763       0.38089014 </v>
    <v>       0.00122524       0.50329604       0.44308177 </v>
    <v>       0.49253096      -0.00658275       0.44131151 </v>
    <v>       0.75427391       0.24802627       0.50317715 </v>
    <v>       0.75283129       0.40106149       0.52288360 </v>
   </varray>
  </structure>
  <varray name="forces" >
   <v>      -0.00155122       0.00203580      -0.05884480 </v>
   <v>       0.00085471      -0.00116968      -0.05986172 </v>
   <v>       0.00055516       0.00171628       0.22266358 </v>
   <v>      -0.00095580      -0.00094360       0.22875395 </v>
   <v>       0.00735129      -0.00838446      -0.12908760 </v>
   <v>      -0.00740746       0.00935987      -0.12626168 </v>
   <v>       0.00466343       0.00523827       0.01158445 </v>
   <v>      -0.00553297      -0.00354195       0.01793458 </v>
   <v>      -0.00760472       0.00797455      -0.03458258 </v>
   <v>       0.00604121      -0.00840117      -0.00848353 </v>
   <v>      -0.01282274      -0.01328697      -0.03461707 </v>
   <v>       0.00453784       0.00932723       0.00782847 </v>
   <v>      -0.11076569       0.05641050      -0.23433103 </v>
   <v>       0.04839990      -0.08790327      -0.19221356 </v>
   <v>      -0.09837219      -0.10265785      -0.04417131 </v>
   <v>       0.08106178       0.09536027       0.01387442 </v>
   <v>       0.05283628       0.07446322       0.24944949 </v>
   <v>       0.03871119      -0.03559704       0.17036595 </v>
  </varray>
  <varray name="stress" >
   <v>     -18.67862934      -0.39063145       1.37457355 </v>
   <v>      -0.39063138     -18.66802052       0.46875914 </v>
   <v>       1.37457359       0.46875912      -3.79382247 </v>
  </varray>
  <energy>
   <i name="e_fr_energy">    -69.80420224 </i>
   <i name="e_wo_entrp">    -69.76491551 </i>
   <i name="e_0_energy">    -69.79110666 </i>
  </energy>
  <time name="totalsc">   18.60   18.79</time>
 </calculation>
 <calculation>
  <scstep>
   <time name="dav">    1.43    1.44</time>
   <time name="total">    1.53    1.55</time>
   <energy>
    <i name="alphaZ">    521.04204123 </i>
    <i name="ewald"> 103800.14023883 </i>
    <i name="hartreedc">-125482.16524941 </i>
    <i name="XCdc">    719.69640415 </i>
    <i name="pawpsdc">  21113.89543468 </i>
    <i name="pawaedc"> -22840.95703362 </i>
    <i name="eentropy">     -0.04039562 </i>
    <i name="bandstr">   -174.74088881 </i>
    <i name="atom">  22280.27950853 </i>
    <i name="e_fr_energy">    -62.84994004 </i>
    <i name="e_wo_entrp">    -62.80954442 </i>
    <i name="e_0_energy">    -62.83647484 </i>
   </energy>
  </scstep>
  <scstep>
   <time name="dav">    1.84    1.85</time>
   <time name="total">    1.94    1.96</time>
   <energy>
    <i name="e_fr_energy">    -62.86663518 </i>
    <i name="e_wo_entrp">    -62.82626591 </i>
    <i name="e_0_energy">    -62.85317876 </i>
   </energy>
  </scstep>
  <scstep>
   <time name="dav">    1.61    1.62</time>
   <time name="total">    1.71    1.72</time>
   <energy>
    <i name="e_fr_energy">    -62.86936811 </i>
    <i name="e_wo_entrp">    -62.83171075 </i>
    <i name="e_0_energy">    -62.85681566 </i>
   </energy>
  </scstep>
  <scstep>
   <time name="dav">    1.55    1.57</time>
   <time name="total">    1.66    1.67</time>
   <energy>
    <i name="e_fr_energy">    -62.86570342 </i>
    <i name="e_wo_entrp">    -62.82643587 </i>
    <i name="e_0_energy">    -62.85261424 </i>
   </energy>
  </scstep>
  <scstep>
   <time name="dav">    1.62    1.64</time>
   <time name="total">    1.72    1.74</time>
   <energy>
    <i name="e_fr_energy">    -62.86572112 </i>
    <i name="e_wo_entrp">    -62.82297872 </i>
    <i name="e_0_energy">    -62.85147365 </i>
   </energy>
  </scstep>
  <scstep>
   <time name="dav">    1.66    1.68</time>
   <time name="total">    1.76    1.78</time>
   <energy>
    <i name="e_fr_energy">    -62.86582131 </i>
    <i name="e_wo_entrp">    -62.82933644 </i>
    <i name="e_0_energy">    -62.85365969 </i>
   </energy>
  </scstep>
  <scstep>
   <time name="dav">    1.75    1.77</time>
   <time name="total">    1.86    1.87</time>
   <energy>
    <i name="e_fr_energy">    -62.86497371 </i>
    <i name="e_wo_entrp">    -62.82443626 </i>
    <i name="e_0_energy">    -62.85146123 </i>
   </energy>
  </scstep>
  <scstep>
   <time name="dav">    1.29    1.30</time>
   <time name="total">    1.33    1.34</time>
   <energy>
    <i name="alphaZ">    521.04204123 </i>
    <i name="ewald"> 103800.14023883 </i>
    <i name="hartreedc">-125481.54851730 </i>
    <i name="XCdc">    719.70637148 </i>
    <i name="pawpsdc">  21121.25200848 </i>
    <i name="pawaedc"> -22848.41338611 </i>
    <i name="eentropy">     -0.04035945 </i>
    <i name="bandstr">   -175.28286212 </i>
    <i name="atom">  22280.27950853 </i>
    <i name="e_fr_energy">    -62.86495644 </i>
    <i name="e_wo_entrp">    -62.82459698 </i>
    <i name="e_0_energy">    -62.85150329 </i>
   </energy>
  </scstep>
  <structure>
   <crystal>
    <varray name="basis" >
     <v>       3.63000011       0.00000000       0.00000000 </v>
     <v>       0.00000000       3.63000011       0.00000000 </v>
     <v>       0.00000000       0.00000000      27.70499992 </v>
    </varray>
    <i name="volume">    365.06603650 </i>
    <varray name="rec_basis" >
     <v>       0.27548208       0.00000000       0.00000000 </v>
     <v>       0.00000000       0.27548208       0.00000000 </v>
     <v>       0.00000000       0.00000000       0.03609457 </v>
    </varray>
   </crystal>
   <varray name="positions" >
    <v>       0.00003980      -0.00005741       0.00179548 </v>
    <v>       0.49995768       0.50006018       0.00179780 </v>
    <v>      -0.00002332       0.50004624       0.06433235 </v>
    <v>       0.49992408      -0.00002948       0.06425619 </v>
    <v>       0.00002158       0.00011163       0.12842102 </v>
    <v>       0.50004149       0.49989173       0.12841862 </v>
    <v>      -0.00041296       0.49958953       0.19196465 </v>
    <v>       0.50057095       0.00039991       0.19183136 </v>
    <v>       0.00050302      -0.00052920       0.25445330 </v>
    <v>       0.49920470       0.50055512       0.25415911 </v>
    <v>      -0.00094684       0.49960175       0.31773544 </v>
    <v>       0.50046532       0.00038527       0.31740086 </v>
    <v>      -0.00046618      -0.00051120       0.38079603 </v>
    <v>       0.49874140       0.49932925       0.38034256 </v>
    <v>      -0.00033158       0.50210850       0.44270839 </v>
    <v>       0.49244633      -0.00622237       0.44069863 </v>
    <v>       0.75613145       0.25005544       0.50425388 </v>
    <v>       0.75413308       0.40053240       0.52363111 </v>
   </varray>
  </structure>
  <varray name="forces" >
   <v>      -0.00230811       0.00162601      -0.05757494 </v>
   <v>       0.00017355      -0.00166713      -0.05933111 </v>
   <v>      -0.00137263      -0.00075757       0.14256779 </v>
   <v>       0.00031228       0.00045651       0.15053670 </v>
   <v>       0.00254586      -0.00467434      -0.02361314 </v>
   <v>      -0.00431019       0.00481183      -0.02182032 </v>
   <v>       0.00293065       0.00422989      -0.02556467 </v>
   <v>      -0.00636397      -0.00385825      -0.01697228 </v>
   <v>      -0.00567489       0.00342249      -0.03688359 </v>
   <v>       0.00317190      -0.00516222      -0.00884936 </v>
   <v>       0.00448004       0.00378540      -0.09211456 </v>
   <v>      -0.01839256      -0.01260729      -0.05155682 </v>
   <v>      -0.05301629       0.00572210      -0.16502262 </v>
   <v>      -0.00025862      -0.03093586      -0.12124932 </v>
   <v>      -0.05228487      -0.06173956      -0.06286040 </v>
   <v>       0.05132482       0.06355640       0.03392105 </v>
   <v>       0.04833488      -0.12906542       0.04363843 </v>
   <v>       0.03070815       0.16285700       0.37274917 </v>
  </varray>
  <varray name="stress" >
   <v>     -16.35504879      -0.35133264       1.36671635 </v>
   <v>      -0.35133263     -15.90091499       0.94861574 </v>
   <v>       1.36671633       0.94861560      -0.71996131 </v>
  </varray>
  <energy>
   <i name="e_fr_energy">    -69.82535156 </i>
   <i name="e_wo_entrp">    -69.78499211 </i>
   <i name="e_0_energy">    -69.81189841 </i>
  </energy>
  <time name="totalsc">   15.77   15.96</time>
 </calculation>
 <calculation>
  <scstep>
   <time name="dav">    1.43    1.44</time>
   <time name="total">    1.53    1.55</time>
   <energy>
    <i name="alphaZ">    521.04204123 </i>
    <i name="ewald"> 104278.06593242 </i>
    <i name="hartreedc">-125959.05660626 </i>
    <i name="XCdc">    719.78305353 </i>
    <i name="pawpsdc">  21121.35330681 </i>
    <i name="pawaedc"> -22848.51240542 </i>
    <i name="eentropy">     -0.04149072 </i>
    <i name="bandstr">   -175.74708274 </i>
    <i name="atom">  22280.27950853 </i>
    <i name="e_fr_energy">    -62.83374263 </i>
    <i name="e_wo_entrp">    -62.79225191 </i>
    <i name="e_0_energy">    -62.81991239 </i>
   </energy>
  </scstep>
  <scstep>
   <time name="dav">    1.84    1.85</time>
   <time name="total">    1.94    1.96</time>
   <energy>
    <i name="e_fr_energy">    -62.87113306 </i>
    <i name="e_wo_entrp">    -62.82972299 </i>
    <i name="e_0_energy">    -62.85732971 </i>
   </energy>
  </scstep>
  <scstep>
   <time name="dav">    1.61    1.62</time>
   <time name="total">    1.72    1.73</time>
   <energy>
    <i name="e_fr_energy">    -62.87761658 </i>
    <i name="e_wo_entrp">    -62.84168170 </i>
    <i name="e_0_energy">    -62.86563829 </i>
   </energy>
  </scstep>
  <scstep>
   <time name="dav">    1.61    1.63</time>
   <time name="total">    1.72    1.73</time>
   <energy>
    <i name="e_fr_energy">    -62.86858352 </i>
    <i name="e_wo_entrp">    -62.82879500 </i>
    <i name="e_0_energy">    -62.85532068 </i>
   </energy>
  </scstep>
  <scstep>
   <time name="dav">    1.98    2.00</time>
   <time name="total">    2.09    2.10</time>
   <energy>
    <i name="e_fr_energy">    -62.86859251 </i>
    <i name="e_wo_entrp">    -62.82329770 </i>
    <i name="e_0_energy">    -62.85349424 </i>
   </energy>
  </scstep>
  <scstep>
   <time name="dav">    1.90    1.91</time>
   <time name="total">    2.00    2.02</time>
   <energy>
    <i name="e_fr_energy">    -62.86853410 </i>
    <i name="e_wo_entrp">    -62.83225172 </i>
    <i name="e_0_energy">    -62.85643997 </i>
   </energy>
  </scstep>
  <scstep>
   <time name="dav">    2.13    2.15</time>
   <time name="total">    2.24    2.25</time>
   <energy>
    <i name="e_fr_energy">    -62.86685154 </i>
    <i name="e_wo_entrp">    -62.82483058 </i>
    <i name="e_0_energy">    -62.85284455 </i>
   </energy>
  </scstep>
  <scstep>
   <time name="dav">    1.52    1.53</time>
   <time name="total">    1.55    1.57</time>
   <energy>
    <i name="alphaZ">    521.04204123 </i>
    <i name="ewald"> 104278.06593242 </i>
    <i name="hartreedc">-125957.67008283 </i>
    <i name="XCdc">    719.79983883 </i>
    <i name="pawpsdc">  21133.59027441 </i>
    <i name="pawaedc"> -22860.97224642 </i>
    <i name="eentropy">     -0.04157035 </i>
    <i name="bandstr">   -176.96050618 </i>
    <i name="atom">  22280.27950853 </i>
    <i name="e_fr_energy">    -62.86681035 </i>
    <i name="e_wo_entrp">    -62.82524001 </i>
    <i name="e_0_energy">    -62.85295357 </i>
   </energy>
  </scstep>
  <structure>
   <crystal>
    <varray name="basis" >
     <v>       3.63000011       0.00000000       0.00000000 </v>
     <v>       0.00000000       3.63000011       0.00000000 </v>
     <v>       0.00000000       0.00000000      27.70499992 </v>
    </varray>
    <i name="volume">    365.06603650 </i>
    <varray name="rec_basis" >
     <v>       0.27548208       0.00000000       0.00000000 </v>
     <v>       0.00000000       0.27548208       0.00000000 </v>
     <v>       0.00000000       0.00000000       0.03609457 </v>
    </varray>
   </crystal>
   <varray name="positions" >
    <v>       0.00001557      -0.00002753       0.00208415 </v>
    <v>       0.49996571       0.50004972       0.00208411 </v>
    <v>      -0.00001718       0.50009589       0.06467425 </v>
    <v>       0.49988317      -0.00005823       0.06459587 </v>
    <v>       0.00019076      -0.00004535       0.12795926 </v>
    <v>       0.49988777       0.50007068       0.12796425 </v>
    <v>      -0.00041664       0.49959887       0.19200757 </v>
    <v>       0.50059667       0.00042464       0.19185790 </v>
    <v>       0.00046510      -0.00049039       0.25445482 </v>
    <v>       0.49913168       0.50051351       0.25415946 </v>
    <v>      -0.00147804       0.49920380       0.31770403 </v>
    <v>       0.50068962       0.00069292       0.31740464 </v>
    <v>      -0.00302577       0.00060306       0.37998230 </v>
    <v>       0.49948689       0.49721629       0.37953253 </v>
    <v>      -0.00263455       0.50035178       0.44215606 </v>
    <v>       0.49232115      -0.00568927       0.43979203 </v>
    <v>       0.75887929       0.25305715       0.50584667 </v>
    <v>       0.75605879       0.39974972       0.52473690 </v>
   </varray>
  </structure>
  <varray name="forces" >
   <v>      -0.00333987       0.00118385      -0.05388951 </v>
   <v>      -0.00064906      -0.00240265      -0.05584160 </v>
   <v>      -0.00411466      -0.00421021       0.04267388 </v>
   <v>       0.00215549       0.00275346       0.05129271 </v>
   <v>      -0.00391523       0.00033657       0.12340180 </v>
   <v>       0.00000259      -0.00128375       0.12396056 </v>
   <v>       0.00079539       0.00314989      -0.08038027 </v>
   <v>      -0.00768842      -0.00438302      -0.06842141 </v>
   <v>      -0.00354283      -0.00221448      -0.04150168 </v>
   <v>      -0.00028805      -0.00112950      -0.00850010 </v>
   <v>       0.03097253       0.02992915      -0.18362022 </v>
   <v>      -0.05480840      -0.04712057      -0.14325104 </v>
   <v>       0.03292056      -0.06747773      -0.06360095 </v>
   <v>      -0.07117719       0.05623223      -0.01259762 </v>
   <v>       0.00683912      -0.00702716      -0.09400180 </v>
   <v>       0.01184599       0.01929554       0.06407358 </v>
   <v>       0.04849071      -0.49650946      -0.32547393 </v>
   <v>       0.01550133       0.52087783       0.72567762 </v>
  </varray>
  <varray name="stress" >
   <v>     -15.92949992      -0.31584216       1.35214897 </v>
   <v>      -0.31584215     -14.66888975       1.78775920 </v>
   <v>       1.35214902       1.78775908       1.09308062 </v>
  </varray>
  <energy>
   <i name="e_fr_energy">    -69.83748364 </i>
   <i name="e_wo_entrp">    -69.79591329 </i>
   <i name="e_0_energy">    -69.82362686 </i>
  </energy>
  <time name="totalsc">   17.06   17.22</time>
 </calculation>
 <calculation>
  <scstep>
   <time name="dav">    1.45    1.46</time>
   <time name="total">    1.56    1.57</time>
   <energy>
    <i name="alphaZ">    521.04204123 </i>
    <i name="ewald"> 104397.46115217 </i>
    <i name="hartreedc">-126077.40026185 </i>
    <i name="XCdc">    719.80547978 </i>
    <i name="pawpsdc">  21133.71094666 </i>
    <i name="pawaedc"> -22861.08182900 </i>
    <i name="eentropy">     -0.04157175 </i>
    <i name="bandstr">   -176.64562127 </i>
    <i name="atom">  22280.27950853 </i>
    <i name="e_fr_energy">    -62.87015550 </i>
    <i name="e_wo_entrp">    -62.82858375 </i>
    <i name="e_0_energy">    -62.85629825 </i>
   </energy>
  </scstep>
  <scstep>
   <time name="dav">    1.90    1.92</time>
   <time name="total">    2.01    2.03</time>
   <energy>
    <i name="e_fr_energy">    -62.87217126 </i>
    <i name="e_wo_entrp">    -62.83059900 </i>
    <i name="e_0_energy">    -62.85831384 </i>
   </energy>
  </scstep>
  <scstep>
   <time name="dav">    1.51    1.52</time>
   <time name="total">    1.62    1.63</time>
   <energy>
    <i name="e_fr_energy">    -62.87241266 </i>
    <i name="e_wo_entrp">    -62.83067580 </i>
    <i name="e_0_energy">    -62.85850037 </i>
   </energy>
  </scstep>
  <scstep>
   <time name="dav">    1.19    1.20</time>
   <time name="total">    1.30    1.31</time>
   <energy>
    <i name="e_fr_energy">    -62.87193334 </i>
    <i name="e_wo_entrp">    -62.83126574 </i>
    <i name="e_0_energy">    -62.85837747 </i>
   </energy>
  </scstep>
  <scstep>
   <time name="dav">    1.05    1.06</time>
   <time name="total">    1.08    1.09</time>
   <energy>
    <i name="alphaZ">    521.04204123 </i>
    <i name="ewald"> 104397.46115217 </i>
    <i name="hartreedc">-126077.47329345 </i>
    <i name="XCdc">    719.79507528 </i>
    <i name="pawpsdc">  21135.25522178 </i>
    <i name="pawaedc"> -22862.61109884 </i>
    <i name="eentropy">     -0.04283672 </i>
    <i name="bandstr">   -176.57772688 </i>
    <i name="atom">  22280.27950853 </i>
    <i name="e_fr_energy">    -62.87195689 </i>
    <i name="e_wo_entrp">    -62.82912017 </i>
    <i name="e_0_energy">    -62.85767798 </i>
   </energy>
  </scstep>
  <structure>
   <crystal>
    <varray name="basis" >
     <v>       3.63000011       0.00000000       0.00000000 </v>
     <v>       0.00000000       3.63000011       0.00000000 </v>
     <v>       0.00000000       0.00000000      27.70499992 </v>
    </varray>
    <i name="volume">    365.06603650 </i>
    <varray name="rec_basis" >
     <v>       0.27548208       0.00000000       0.00000000 </v>
     <v>       0.00000000       0.27548208       0.00000000 </v>
     <v>       0.00000000       0.00000000       0.03609457 </v>
    </varray>
   </crystal>
   <varray name="positions" >
    <v>       0.00000369      -0.00001841       0.00213727 </v>
    <v>       0.49996633       0.50004277       0.00213620 </v>
    <v>      -0.00002354       0.50009937       0.06476351 </v>
    <v>       0.49987783      -0.00005965       0.06468676 </v>
    <v>       0.00022232      -0.00008085       0.12788349 </v>
    <v>       0.49985238       0.50010945       0.12789033 </v>
    <v>      -0.00041598       0.49960697       0.19199756 </v>
    <v>       0.50058808       0.00042205       0.19184708 </v>
    <v>       0.00044968      -0.00048563       0.25444490 </v>
    <v>       0.49911433       0.50050180       0.25415744 </v>
    <v>      -0.00154183       0.49916872       0.31765136 </v>
    <v>       0.50063774       0.00067475       0.31737006 </v>
    <v>      -0.00355283       0.00073213       0.37977923 </v>
    <v>       0.49952408       0.49683607       0.37934294 </v>
    <v>      -0.00315180       0.49993410       0.44200565 </v>
    <v>       0.49231471      -0.00553010       0.43959917 </v>
    <v>       0.75960344       0.25281043       0.50613280 </v>
    <v>       0.75653138       0.40055331       0.52517103 </v>
   </varray>
  </structure>
  <varray name="forces" >
   <v>      -0.00338897      -0.00006065      -0.05246924 </v>
   <v>      -0.00136934      -0.00291724      -0.05405191 </v>
   <v>      -0.00466695      -0.00541566       0.01713417 </v>
   <v>       0.00213807       0.00221788       0.02498688 </v>
   <v>      -0.00568721       0.00093722       0.14795261 </v>
   <v>       0.00073998      -0.00370095       0.14805772 </v>
   <v>      -0.00027699       0.00161072      -0.08280053 </v>
   <v>      -0.00770051      -0.00490021      -0.07090290 </v>
   <v>      -0.00428535      -0.00349162      -0.04676930 </v>
   <v>      -0.00069713      -0.00191702      -0.01608869 </v>
   <v>       0.03292327       0.03181851      -0.19548641 </v>
   <v>      -0.05937386      -0.05192046      -0.16092630 </v>
   <v>       0.05192926      -0.08081761      -0.04037434 </v>
   <v>      -0.08317027       0.07272197       0.00923205 </v>
   <v>       0.01857664       0.00509812      -0.09413764 </v>
   <v>       0.00238195       0.00697301       0.07442678 </v>
   <v>       0.04497162      -0.35510035      -0.20056034 </v>
   <v>       0.01695579       0.38886435       0.59277738 </v>
  </varray>
  <varray name="stress" >
   <v>     -14.38916624      -0.29830063       1.37110850 </v>
   <v>      -0.29830058     -13.44683450       1.48107044 </v>
   <v>       1.37110863       1.48107052       1.82067537 </v>
  </varray>
  <energy>
   <i name="e_fr_energy">    -69.84554924 </i>
   <i name="e_wo_entrp">    -69.80271252 </i>
   <i name="e_0_energy">    -69.83127033 </i>
  </energy>
  <time name="totalsc">    9.83    9.96</time>
 </calculation>
 <calculation>
  <scstep>
   <time name="dav">    1.45    1.47</time>
   <time name="total">    1.56    1.58</time>
   <energy>
    <i name="alphaZ">    521.04204123 </i>
    <i name="ewald"> 104756.36407565 </i>
    <i name="hartreedc">-126435.92596113 </i>
    <i name="XCdc">    719.82064995 </i>
    <i name="pawpsdc">  21135.68143845 </i>
    <i name="pawaedc"> -22863.06065437 </i>
    <i name="eentropy">     -0.04154495 </i>
    <i name="bandstr">   -177.02156373 </i>
    <i name="atom">  22280.27950853 </i>
    <i name="e_fr_energy">    -62.86201038 </i>
    <i name="e_wo_entrp">    -62.82046543 </i>
    <i name="e_0_energy">    -62.84816206 </i>
   </energy>
  </scstep>
  <scstep>
   <time name="dav">    1.83    1.85</time>
   <time name="total">    1.94    1.96</time>
   <energy>
    <i name="e_fr_energy">    -62.87842536 </i>
    <i name="e_wo_entrp">    -62.83311003 </i>
    <i name="e_0_energy">    -62.86332025 </i>
   </energy>
  </scstep>
  <scstep>
   <time name="dav">    1.63    1.64</time>
   <time name="total">    1.73    1.75</time>
   <energy>
    <i name="e_fr_energy">    -62.88139522 </i>
    <i name="e_wo_entrp">    -62.84364821 </i>
    <i name="e_0_energy">    -62.86881289 </i>
   </energy>
  </scstep>
  <scstep>
   <time name="dav">    1.58    1.59</time>
   <time name="total">    1.69    1.70</time>
   <energy>
    <i name="e_fr_energy">    -62.87808341 </i>
    <i name="e_wo_entrp">    -62.83893847 </i>
    <i name="e_0_energy">    -62.86503510 </i>
   </energy>
  </scstep>
  <scstep>
   <time name="dav">    1.56    1.58</time>
   <time name="total">    1.67    1.68</time>
   <energy>
    <i name="e_fr_energy">    -62.87697620 </i>
    <i name="e_wo_entrp">    -62.83257073 </i>
[...]
       <r>     8.1785     2.3805   104.2515 </r>
       <r>     8.2541     3.1176   104.4873 </r>
       <r>     8.3298     3.3514   104.7407 </r>
       <r>     8.4054     2.7394   104.9478 </r>
       <r>     8.4810     1.9525   105.0955 </r>
       <r>     8.5566     1.6132   105.2174 </r>
       <r>     8.6322     1.7731   105.3515 </r>
       <r>     8.7078     2.5556   105.5448 </r>
       <r>     8.7835     3.9780   105.8456 </r>
       <r>     8.8591     5.3332   106.2489 </r>
       <r>     8.9347     5.9450   106.6984 </r>
       <r>     9.0103     6.0763   107.1579 </r>
       <r>     9.0859     6.1867   107.6257 </r>
       <r>     9.1615     5.9190   108.0733 </r>
       <r>     9.2372     4.6957   108.4283 </r>
       <r>     9.3128     2.9078   108.6482 </r>
       <r>     9.3884     1.6986   108.7767 </r>
       <r>     9.4640     1.7623   108.9099 </r>
       <r>     9.5396     2.8610   109.1263 </r>
       <r>     9.6152     4.2432   109.4471 </r>
       <r>     9.6909     5.0828   109.8315 </r>
       <r>     9.7665     4.7209   110.1884 </r>
       <r>     9.8421     3.1932   110.4299 </r>
       <r>     9.9177     1.6495   110.5546 </r>
       <r>     9.9933     1.4521   110.6644 </r>
       <r>    10.0689     2.6260   110.8630 </r>
       <r>    10.1446     3.9092   111.1586 </r>
       <r>    10.2202     4.4820   111.4975 </r>
       <r>    10.2958     4.7983   111.8604 </r>
       <r>    10.3714     5.4820   112.2749 </r>
       <r>    10.4470     6.4341   112.7614 </r>
       <r>    10.5226     7.2064   113.3063 </r>
       <r>    10.5983     7.2402   113.8538 </r>
       <r>    10.6739     5.9698   114.3052 </r>
       <r>    10.7495     3.5897   114.5767 </r>
       <r>    10.8251     1.2276   114.6695 </r>
       <r>    10.9007    -0.0358   114.6668 </r>
       <r>    10.9763     0.2358   114.6846 </r>
       <r>    11.0520     1.8855   114.8272 </r>
       <r>    11.1276     3.9671   115.1272 </r>
       <r>    11.2032     4.9717   115.5031 </r>
       <r>    11.2788     4.1389   115.8161 </r>
       <r>    11.3544     2.2447   115.9858 </r>
       <r>    11.4300     0.6328   116.0337 </r>
       <r>    11.5057    -0.0968   116.0264 </r>
       <r>    11.5813    -0.1976   116.0114 </r>
       <r>    11.6569    -0.1065   116.0034 </r>
       <r>    11.7325    -0.0351   116.0007 </r>
       <r>    11.8081    -0.0080   116.0001 </r>
       <r>    11.8837    -0.0013   116.0000 </r>
       <r>    11.9594    -0.0002   116.0000 </r>
       <r>    12.0350    -0.0000   116.0000 </r>
       <r>    12.1106    -0.0000   116.0000 </r>
       <r>    12.1862    -0.0000   116.0000 </r>
       <r>    12.2618    -0.0000   116.0000 </r>
       <r>    12.3374    -0.0000   116.0000 </r>
       <r>    12.4131    -0.0000   116.0000 </r>
       <r>    12.4887    -0.0000   116.0000 </r>
       <r>    12.5643     0.0000   116.0000 </r>
       <r>    12.6399     0.0000   116.0000 </r>
       <r>    12.7155     0.0000   116.0000 </r>
       <r>    12.7911     0.0000   116.0000 </r>
       <r>    12.8668     0.0000   116.0000 </r>
       <r>    12.9424     0.0000   116.0000 </r>
       <r>    13.0180     0.0000   116.0000 </r>
       <r>    13.0936     0.0000   116.0000 </r>
       <r>    13.1692     0.0000   116.0000 </r>
       <r>    13.2448     0.0000   116.0000 </r>
      </set>
      <set comment="spin 2">
       <r>    -9.4402     0.0000     0.0000 </r>
       <r>    -9.3646     0.0000     0.0000 </r>
       <r>    -9.2890     0.0000     0.0000 </r>
       <r>    -9.2134     0.0000     0.0000 </r>
       <r>    -9.1377     0.0000     0.0000 </r>
       <r>    -9.0621    -0.0000    -0.0000 </r>
       <r>    -8.9865    -0.0000    -0.0000 </r>
       <r>    -8.9109    -0.0000    -0.0000 </r>
       <r>    -8.8353    -0.0000    -0.0000 </r>
       <r>    -8.7597    -0.0000    -0.0000 </r>
       <r>    -8.6840    -0.0000    -0.0000 </r>
       <r>    -8.6084    -0.0000    -0.0000 </r>
       <r>    -8.5328    -0.0000    -0.0000 </r>
       <r>    -8.4572    -0.0000    -0.0000 </r>
       <r>    -8.3816    -0.0000    -0.0000 </r>
       <r>    -8.3059    -0.0000    -0.0000 </r>
       <r>    -8.2303    -0.0000    -0.0000 </r>
       <r>    -8.1547    -0.0000    -0.0000 </r>
       <r>    -8.0791    -0.0000    -0.0000 </r>
       <r>    -8.0035    -0.0003    -0.0000 </r>
       <r>    -7.9279    -0.0019    -0.0002 </r>
       <r>    -7.8522    -0.0074    -0.0007 </r>
       <r>    -7.7766    -0.0188    -0.0021 </r>
       <r>    -7.7010    -0.0224    -0.0038 </r>
       <r>    -7.6254     0.0278    -0.0017 </r>
       <r>    -7.5498     0.1768     0.0116 </r>
       <r>    -7.4742     0.3725     0.0398 </r>
       <r>    -7.3985     0.4583     0.0745 </r>
       <r>    -7.3229     0.3463     0.1006 </r>
       <r>    -7.2473     0.1369     0.1110 </r>
       <r>    -7.1717    -0.0011     0.1109 </r>
       <r>    -7.0961     0.0210     0.1125 </r>
       <r>    -7.0205     0.1905     0.1269 </r>
       <r>    -6.9448     0.3916     0.1565 </r>
       <r>    -6.8692     0.4547     0.1909 </r>
       <r>    -6.7936     0.3252     0.2155 </r>
       <r>    -6.7180     0.1278     0.2252 </r>
       <r>    -6.6424    -0.0010     0.2251 </r>
       <r>    -6.5668    -0.0544     0.2210 </r>
       <r>    -6.4911    -0.0976     0.2136 </r>
       <r>    -6.4155    -0.1205     0.2045 </r>
       <r>    -6.3399     0.0684     0.2097 </r>
       <r>    -6.2643     0.7164     0.2638 </r>
       <r>    -6.1887     1.6788     0.3908 </r>
       <r>    -6.1131     2.2462     0.5606 </r>
       <r>    -6.0374     1.8644     0.7016 </r>
       <r>    -5.9618     0.8827     0.7684 </r>
       <r>    -5.8862     0.1837     0.7822 </r>
       <r>    -5.8106     0.3033     0.8052 </r>
       <r>    -5.7350     1.0636     0.8856 </r>
       <r>    -5.6594     1.7386     1.0171 </r>
       <r>    -5.5837     1.6766     1.1439 </r>
       <r>    -5.5081     0.9666     1.2170 </r>
       <r>    -5.4325     0.2319     1.2345 </r>
       <r>    -5.3569    -0.1571     1.2226 </r>
       <r>    -5.2813    -0.2573     1.2031 </r>
       <r>    -5.2057    -0.0717     1.1977 </r>
       <r>    -5.1300     0.6841     1.2495 </r>
       <r>    -5.0544     2.1003     1.4083 </r>
       <r>    -4.9788     3.4584     1.6698 </r>
       <r>    -4.9032     3.6618     1.9467 </r>
       <r>    -4.8276     2.5930     2.1428 </r>
       <r>    -4.7520     1.4430     2.2519 </r>
       <r>    -4.6763     1.2590     2.3471 </r>
       <r>    -4.6007     1.7632     2.4804 </r>
       <r>    -4.5251     2.0834     2.6379 </r>
       <r>    -4.4495     2.0460     2.7927 </r>
       <r>    -4.3739     2.0700     2.9492 </r>
       <r>    -4.2983     2.2883     3.1222 </r>
       <r>    -4.2226     2.5060     3.3117 </r>
       <r>    -4.1470     2.6682     3.5135 </r>
       <r>    -4.0714     2.8993     3.7327 </r>
       <r>    -3.9958     3.2301     3.9770 </r>
       <r>    -3.9202     3.3893     4.2332 </r>
       <r>    -3.8446     2.9480     4.4562 </r>
       <r>    -3.7689     1.8447     4.5957 </r>
       <r>    -3.6933     0.6974     4.6484 </r>
       <r>    -3.6177     0.4268     4.6807 </r>
       <r>    -3.5421     1.4238     4.7883 </r>
       <r>    -3.4665     2.9007     5.0077 </r>
       <r>    -3.3909     3.3894     5.2640 </r>
       <r>    -3.3152     2.4256     5.4474 </r>
       <r>    -3.2396     1.2946     5.5453 </r>
       <r>    -3.1640     1.5947     5.6659 </r>
       <r>    -3.0884     3.6928     5.9451 </r>
       <r>    -3.0128     6.8949     6.4665 </r>
       <r>    -2.9372    10.2739     7.2433 </r>
       <r>    -2.8615    12.7175     8.2050 </r>
       <r>    -2.7859    12.9970     9.1878 </r>
       <r>    -2.7103    11.1425    10.0303 </r>
       <r>    -2.6347     9.1929    10.7255 </r>
       <r>    -2.5591     9.1575    11.4179 </r>
       <r>    -2.4835    11.1310    12.2596 </r>
       <r>    -2.4078    14.2395    13.3364 </r>
       <r>    -2.3322    17.7597    14.6793 </r>
       <r>    -2.2566    20.6688    16.2422 </r>
       <r>    -2.1810    21.4906    17.8673 </r>
       <r>    -2.1054    19.4729    19.3398 </r>
       <r>    -2.0298    15.7439    20.5303 </r>
       <r>    -1.9541    12.6319    21.4854 </r>
       <r>    -1.8785    11.8064    22.3782 </r>
       <r>    -1.8029    13.3652    23.3888 </r>
       <r>    -1.7273    16.1704    24.6116 </r>
       <r>    -1.6517    18.6865    26.0246 </r>
       <r>    -1.5761    19.7959    27.5215 </r>
       <r>    -1.5004    19.4379    28.9913 </r>
       <r>    -1.4248    18.8331    30.4154 </r>
       <r>    -1.3492    19.5109    31.8908 </r>
       <r>    -1.2736    21.9821    33.5530 </r>
       <r>    -1.1980    25.7792    35.5023 </r>
       <r>    -1.1224    29.9882    37.7700 </r>
       <r>    -1.0467    33.0974    40.2727 </r>
       <r>    -0.9711    33.5116    42.8067 </r>
       <r>    -0.8955    31.2972    45.1733 </r>
       <r>    -0.8199    28.3398    47.3163 </r>
       <r>    -0.7443    25.9619    49.2794 </r>
       <r>    -0.6687    24.2222    51.1110 </r>
       <r>    -0.5930    23.5981    52.8955 </r>
       <r>    -0.5174    24.3950    54.7401 </r>
       <r>    -0.4418    25.2224    56.6474 </r>
       <r>    -0.3662    25.0856    58.5443 </r>
       <r>    -0.2906    25.5617    60.4771 </r>
       <r>    -0.2150    28.5391    62.6352 </r>
       <r>    -0.1393    33.1272    65.1402 </r>
       <r>    -0.0637    36.3800    67.8911 </r>
       <r>     0.0119    36.6885    70.6654 </r>
       <r>     0.0875    35.5786    73.3557 </r>
       <r>     0.1631    35.5682    76.0453 </r>
       <r>     0.2388    36.4347    78.8003 </r>
       <r>     0.3144    34.8066    81.4323 </r>
       <r>     0.3900    28.1550    83.5613 </r>
       <r>     0.4656    18.0405    84.9255 </r>
       <r>     0.5412     8.4948    85.5678 </r>
       <r>     0.6168     2.3215    85.7433 </r>
       <r>     0.6925    -0.2114    85.7274 </r>
       <r>     0.7681    -0.1050    85.7194 </r>
       <r>     0.8437     1.5749    85.8385 </r>
       <r>     0.9193     3.6103    86.1115 </r>
       <r>     0.9949     4.6286    86.4615 </r>
       <r>     1.0705     4.0253    86.7659 </r>
       <r>     1.1462     2.4189    86.9488 </r>
       <r>     1.2218     0.8899    87.0161 </r>
       <r>     1.2974     0.0710    87.0215 </r>
       <r>     1.3730    -0.0760    87.0157 </r>
       <r>     1.4486     0.0829    87.0220 </r>
       <r>     1.5242     0.3627    87.0494 </r>
       <r>     1.5999     1.0213    87.1266 </r>
       <r>     1.6755     2.4574    87.3125 </r>
       <r>     1.7511     4.5085    87.6534 </r>
       <r>     1.8267     6.1847    88.1210 </r>
       <r>     1.9023     6.5609    88.6171 </r>
       <r>     1.9779     5.8010    89.0558 </r>
       <r>     2.0536     4.5546    89.4002 </r>
       <r>     2.1292     2.9874    89.6261 </r>
       <r>     2.2048     1.5106    89.7403 </r>
       <r>     2.2804     1.3474    89.8422 </r>
       <r>     2.3560     3.0238    90.0709 </r>
       <r>     2.4316     5.0884    90.4556 </r>
       <r>     2.5073     5.5754    90.8772 </r>
       <r>     2.5829     4.3554    91.2066 </r>
       <r>     2.6585     2.9916    91.4328 </r>
       <r>     2.7341     2.7478    91.6406 </r>
       <r>     2.8097     3.4579    91.9020 </r>
       <r>     2.8853     3.8761    92.1951 </r>
       <r>     2.9610     3.0988    92.4295 </r>
       <r>     3.0366     1.7357    92.5607 </r>
       <r>     3.1122     1.0766    92.6421 </r>
       <r>     3.1878     1.3411    92.7435 </r>
       <r>     3.2634     1.6139    92.8656 </r>
       <r>     3.3390     1.3138    92.9649 </r>
       <r>     3.4147     0.8327    93.0279 </r>
       <r>     3.4903     0.6786    93.0792 </r>
       <r>     3.5659     0.8489    93.1434 </r>
       <r>     3.6415     1.2433    93.2374 </r>
       <r>     3.7171     1.8859    93.3800 </r>
       <r>     3.7927     2.5615    93.5737 </r>
       <r>     3.8684     2.8759    93.7912 </r>
       <r>     3.9440     2.6560    93.9920 </r>
       <r>     4.0196     1.9587    94.1401 </r>
       <r>     4.0952     1.0148    94.2168 </r>
       <r>     4.1708     0.2211    94.2336 </r>
       <r>     4.2464    -0.1362    94.2233 </r>
       <r>     4.3221    -0.0368    94.2205 </r>
       <r>     4.3977     0.4422    94.2539 </r>
       <r>     4.4733     1.1863    94.3436 </r>
       <r>     4.5489     1.9122    94.4882 </r>
       <r>     4.6245     2.1894    94.6538 </r>
       <r>     4.7001     1.8401    94.7929 </r>
       <r>     4.7758     1.3176    94.8925 </r>
       <r>     4.8514     1.2489    94.9870 </r>
       <r>     4.9270     1.5808    95.1065 </r>
       <r>     5.0026     1.7954    95.2423 </r>
       <r>     5.0782     1.8266    95.3804 </r>
       <r>     5.1538     1.9762    95.5298 </r>
       <r>     5.2295     2.2289    95.6984 </r>
       <r>     5.3051     2.3606    95.8769 </r>
       <r>     5.3807     2.3659    96.0558 </r>
       <r>     5.4563     2.3597    96.2342 </r>
       <r>     5.5319     2.3034    96.4084 </r>
       <r>     5.6075     2.0914    96.5665 </r>
       <r>     5.6832     2.0424    96.7210 </r>
       <r>     5.7588     2.9517    96.9442 </r>
       <r>     5.8344     5.0068    97.3228 </r>
       <r>     5.9100     6.8589    97.8414 </r>
       <r>     5.9856     6.6893    98.3472 </r>
       <r>     6.0612     4.3499    98.6762 </r>
       <r>     6.1369     1.6531    98.8012 </r>
       <r>     6.2125     0.4015    98.8315 </r>
       <r>     6.2881     0.7994    98.8920 </r>
       <r>     6.3637     1.7296    99.0228 </r>
       <r>     6.4393     2.0878    99.1806 </r>
       <r>     6.5149     1.8261    99.3187 </r>
       <r>     6.5906     1.6331    99.4422 </r>
       <r>     6.6662     1.8480    99.5820 </r>
       <r>     6.7418     2.3514    99.7598 </r>
       <r>     6.8174     3.1465    99.9977 </r>
       <r>     6.8930     4.2070   100.3158 </r>
       <r>     6.9686     5.0640   100.6987 </r>
       <r>     7.0443     5.0902   101.0836 </r>
       <r>     7.1199     4.1592   101.3981 </r>
       <r>     7.1955     2.9145   101.6185 </r>
       <r>     7.2711     2.1677   101.7824 </r>
       <r>     7.3467     2.1354   101.9439 </r>
       <r>     7.4223     2.6447   102.1439 </r>
       <r>     7.4980     3.6109   102.4169 </r>
       <r>     7.5736     4.6930   102.7718 </r>
       <r>     7.6492     5.0236   103.1517 </r>
       <r>     7.7248     4.0369   103.4569 </r>
       <r>     7.8004     2.3480   103.6345 </r>
       <r>     7.8760     1.2204   103.7268 </r>
       <r>     7.9517     1.1522   103.8139 </r>
       <r>     8.0273     1.5397   103.9303 </r>
       <r>     8.1029     1.8671   104.0715 </r>
       <r>     8.1785     2.3805   104.2515 </r>
       <r>     8.2541     3.1176   104.4873 </r>
       <r>     8.3298     3.3514   104.7407 </r>
       <r>     8.4054     2.7394   104.9478 </r>
       <r>     8.4810     1.9525   105.0955 </r>
       <r>     8.5566     1.6132   105.2174 </r>
       <r>     8.6322     1.7732   105.3515 </r>
       <r>     8.7078     2.5556   105.5448 </r>
       <r>     8.7835     3.9780   105.8456 </r>
       <r>     8.8591     5.3332   106.2489 </r>
       <r>     8.9347     5.9450   106.6984 </r>
       <r>     9.0103     6.0763   107.1579 </r>
       <r>     9.0859     6.1867   107.6257 </r>
       <r>     9.1615     5.9190   108.0733 </r>
       <r>     9.2372     4.6957   108.4283 </r>
       <r>     9.3128     2.9078   108.6482 </r>
       <r>     9.3884     1.6986   108.7767 </r>
       <r>     9.4640     1.7623   108.9099 </r>
       <r>     9.5396     2.8610   109.1263 </r>
       <r>     9.6152     4.2433   109.4471 </r>
       <r>     9.6909     5.0828   109.8315 </r>
       <r>     9.7665     4.7209   110.1884 </r>
       <r>     9.8421     3.1932   110.4299 </r>
       <r>     9.9177     1.6495   110.5546 </r>
       <r>     9.9933     1.4521   110.6644 </r>
       <r>    10.0689     2.6260   110.8630 </r>
       <r>    10.1446     3.9092   111.1586 </r>
       <r>    10.2202     4.4820   111.4975 </r>
       <r>    10.2958     4.7983   111.8604 </r>
       <r>    10.3714     5.4820   112.2749 </r>
       <r>    10.4470     6.4341   112.7614 </r>
       <r>    10.5226     7.2064   113.3064 </r>
       <r>    10.5983     7.2402   113.8538 </r>
       <r>    10.6739     5.9698   114.3052 </r>
       <r>    10.7495     3.5897   114.5767 </r>
       <r>    10.8251     1.2276   114.6695 </r>
       <r>    10.9007    -0.0358   114.6668 </r>
       <r>    10.9763     0.2358   114.6846 </r>
       <r>    11.0520     1.8855   114.8272 </r>
       <r>    11.1276     3.9671   115.1272 </r>
       <r>    11.2032     4.9717   115.5031 </r>
       <r>    11.2788     4.1389   115.8161 </r>
       <r>    11.3544     2.2447   115.9858 </r>
       <r>    11.4300     0.6328   116.0337 </r>
       <r>    11.5057    -0.0968   116.0264 </r>
       <r>    11.5813    -0.1976   116.0114 </r>
       <r>    11.6569    -0.1065   116.0034 </r>
       <r>    11.7325    -0.0351   116.0007 </r>
       <r>    11.8081    -0.0080   116.0001 </r>
       <r>    11.8837    -0.0013   116.0000 </r>
       <r>    11.9594    -0.0002   116.0000 </r>
       <r>    12.0350    -0.0000   116.0000 </r>
       <r>    12.1106    -0.0000   116.0000 </r>
       <r>    12.1862    -0.0000   116.0000 </r>
       <r>    12.2618    -0.0000   116.0000 </r>
       <r>    12.3374    -0.0000   116.0000 </r>
       <r>    12.4131    -0.0000   116.0000 </r>
       <r>    12.4887    -0.0000   116.0000 </r>
       <r>    12.5643     0.0000   116.0000 </r>
       <r>    12.6399     0.0000   116.0000 </r>
       <r>    12.7155     0.0000   116.0000 </r>
       <r>    12.7911     0.0000   116.0000 </r>
       <r>    12.8668     0.0000   116.0000 </r>
       <r>    12.9424     0.0000   116.0000 </r>
       <r>    13.0180     0.0000   116.0000 </r>
       <r>    13.0936     0.0000   116.0000 </r>
       <r>    13.1692     0.0000   116.0000 </r>
       <r>    13.2448     0.0000   116.0000 </r>
      </set>
     </set>
    </array>
   </total>
  </dos>
 </calculation>
 <structure name="finalpos" >
  <crystal>
   <varray name="basis" >
    <v>       3.63000011       0.00000000       0.00000000 </v>
    <v>       0.00000000       3.63000011       0.00000000 </v>
    <v>       0.00000000       0.00000000      27.70499992 </v>
   </varray>
   <i name="volume">    365.06603650 </i>
   <varray name="rec_basis" >
    <v>       0.27548208       0.00000000       0.00000000 </v>
    <v>       0.00000000       0.27548208       0.00000000 </v>
    <v>       0.00000000       0.00000000       0.03609457 </v>
   </varray>
  </crystal>
  <varray name="positions" >
   <v>      -0.00400580      -0.00169220      -0.00056526 </v>
   <v>       0.49592394       0.49837758      -0.00057151 </v>
   <v>      -0.00401161       0.49845642       0.06238421 </v>
   <v>       0.49588887      -0.00168351       0.06237763 </v>
   <v>      -0.00374751      -0.00155977       0.12569624 </v>
   <v>       0.49617329       0.49858870       0.12569120 </v>
   <v>      -0.00349828       0.49882242       0.18860306 </v>
   <v>       0.49616662      -0.00159759       0.18859134 </v>
   <v>      -0.00342146      -0.00148561       0.25052299 </v>
   <v>       0.49632291       0.49887259       0.25050382 </v>
   <v>      -0.00357934       0.49874790       0.31343591 </v>
   <v>       0.49635810      -0.00128373       0.31340830 </v>
   <v>      -0.00378958      -0.00142225       0.37672439 </v>
   <v>       0.49606093       0.49890407       0.37670732 </v>
   <v>      -0.00334262       0.49904044       0.43944952 </v>
   <v>       0.49622751      -0.00117256       0.43927617 </v>
   <v>       0.78123659       0.28890020       0.52601341 </v>
   <v>       0.77903743       0.37850415       0.55074805 </v>
  </varray>
 </structure>
</modeling>
