unknown system                          
           1
     3.630000    0.000000    0.000000
     0.000000    3.630000    0.000000
     0.000000    0.000000   27.705000
   Cu   H 
    16     2
Direct configuration=     1
   0.00000000  0.00000000  0.00000000
   0.50000000  0.50000000  0.00000000
   0.00000000  0.50000000  0.06551164
   0.50000000  0.00000000  0.06551164
   0.00000000  0.00000000  0.12876120
   0.50000000  0.50000000  0.12876120
   0.00000000  0.50000000  0.19193187
   0.50000000  0.00000000  0.19193187
   0.00000000  0.00000000  0.25406550
   0.50000000  0.50000000  0.25406550
   0.00000000  0.50000000  0.31747855
   0.50000000  0.00000000  0.31747855
   0.00000000  0.00000000  0.38132233
   0.50000000  0.50000000  0.38132233
   0.00000000  0.50000000  0.44440075
   0.50000000  0.00000000  0.44440075
   0.75000000  0.25000000  0.50150658
   0.75000000  0.39531726  0.52054652
Direct configuration=     2
   0.00001760 -0.00002034  0.00043079
   0.49998663  0.50001921  0.00043205
  -0.00000685  0.50000165  0.06511072
   0.49999102  0.00000101  0.06509243
  -0.00004205  0.00006990  0.12878299
   0.50005223  0.49992865  0.12878175
  -0.00010656  0.49989309  0.19192435
   0.50013961  0.00010045  0.19189558
   0.00013904 -0.00014282  0.25415680
   0.49981668  0.50015062  0.25408508
  -0.00009986  0.50000002  0.31753720
   0.50004343  0.00001448  0.31744973
   0.00043158 -0.00039666  0.38137391
   0.49948738  0.50030912  0.38126177
   0.00074156  0.50117989  0.44400813
   0.49783372 -0.00196504  0.44358831
   0.75097063  0.24063820  0.50080661
   0.75060419  0.40553583  0.52227857
Direct configuration=     3
   0.00000913 -0.00001054  0.00022336
   0.49999307  0.50000996  0.00022402
  -0.00000355  0.50000086  0.06530376
   0.49999534  0.00000053  0.06529428
  -0.00002180  0.00003624  0.12877250
   0.50002708  0.49996300  0.12877185
  -0.00005525  0.49994456  0.19192797
   0.50007239  0.00005209  0.19191305
   0.00007209 -0.00007405  0.25411284
   0.49990495  0.50007810  0.25407566
  -0.00005178  0.50000001  0.31750896
   0.50002252  0.00000751  0.31746361
   0.00022378 -0.00020567  0.38134907
   0.49973421  0.50016028  0.38129093
   0.00038450  0.50061178  0.44419718
   0.49887678 -0.00101888  0.44397950
   0.75050328  0.24514587  0.50114364
   0.75031327  0.40061563  0.52144460
Direct configuration=     4
   0.00002277 -0.00002999  0.00062258
   0.49998124  0.50002657  0.00062418
  -0.00001048  0.50000428  0.06495512
   0.49998270 -0.00000254  0.06492674
  -0.00004238  0.00008886  0.12876109
   0.50006139  0.49990727  0.12875850
  -0.00015824  0.49983980  0.19193019
   0.50021189  0.00014808  0.19188416
   0.00020446 -0.00021362  0.25421125
   0.49971624  0.50022455  0.25409978
  -0.00020717  0.49996254  0.31758078
   0.50010693  0.00005674  0.31744468
   0.00052539 -0.00051263  0.38134822
   0.49930026  0.50033346  0.38117473
   0.00062825  0.50139001  0.44387380
   0.49703698 -0.00263197  0.44320599
   0.75159647  0.24598096  0.50173320
   0.75104330  0.40074489  0.52186180
Direct configuration=     5
   0.00005617 -0.00007762  0.00160034
   0.49995226  0.50006725  0.00160426
  -0.00002747  0.50001267  0.06410123
   0.49995173 -0.00001004  0.06402656
  -0.00009279  0.00021775  0.12873317
   0.50014541  0.49977075  0.12872578
  -0.00041047  0.49958321  0.19193563
   0.50055355  0.00038319  0.19181341
   0.00052865 -0.00055544  0.25445227
   0.49925405  0.50058324  0.25415887
  -0.00058775  0.49987076  0.31775668
   0.50031368  0.00017730  0.31739830
   0.00126412 -0.00126445  0.38134612
   0.49823744  0.50075763  0.38089014
   0.00122524  0.50329604  0.44308177
   0.49253096 -0.00658275  0.44131151
   0.75427391  0.24802627  0.50317715
   0.75283129  0.40106149  0.52288360
Direct configuration=     6
   0.00003980 -0.00005741  0.00179548
   0.49995768  0.50006018  0.00179780
  -0.00002332  0.50004624  0.06433235
   0.49992408 -0.00002948  0.06425619
   0.00002158  0.00011163  0.12842102
   0.50004149  0.49989173  0.12841862
  -0.00041296  0.49958953  0.19196465
   0.50057095  0.00039991  0.19183136
   0.00050302 -0.00052920  0.25445330
   0.49920470  0.50055512  0.25415911
  -0.00094684  0.49960175  0.31773544
   0.50046532  0.00038527  0.31740086
  -0.00046618 -0.00051120  0.38079603
   0.49874140  0.49932925  0.38034256
  -0.00033158  0.50210850  0.44270839
   0.49244633 -0.00622237  0.44069863
   0.75613145  0.25005544  0.50425388
   0.75413308  0.40053240  0.52363111
Direct configuration=     7
   0.00001557 -0.00002753  0.00208415
   0.49996571  0.50004972  0.00208411
  -0.00001718  0.50009589  0.06467425
   0.49988317 -0.00005823  0.06459587
   0.00019076 -0.00004535  0.12795926
   0.49988777  0.50007068  0.12796425
  -0.00041664  0.49959887  0.19200757
   0.50059667  0.00042464  0.19185790
   0.00046510 -0.00049039  0.25445482
   0.49913168  0.50051351  0.25415946
  -0.00147804  0.49920380  0.31770403
   0.50068962  0.00069292  0.31740464
  -0.00302577  0.00060306  0.37998230
   0.49948689  0.49721629  0.37953253
  -0.00263455  0.50035178  0.44215606
   0.49232115 -0.00568927  0.43979203
   0.75887929  0.25305715  0.50584667
   0.75605879  0.39974972  0.52473690
Direct configuration=     8
   0.00000369 -0.00001841  0.00213727
   0.49996633  0.50004277  0.00213620
  -0.00002354  0.50009937  0.06476351
   0.49987783 -0.00005965  0.06468676
   0.00022232 -0.00008085  0.12788349
   0.49985238  0.50010945  0.12789033
  -0.00041598  0.49960697  0.19199756
   0.50058808  0.00042205  0.19184708
   0.00044968 -0.00048563  0.25444490
   0.49911433  0.50050180  0.25415744
  -0.00154183  0.49916872  0.31765136
   0.50063774  0.00067475  0.31737006
  -0.00355283  0.00073213  0.37977923
   0.49952408  0.49683607  0.37934294
  -0.00315180  0.49993410  0.44200565
   0.49231471 -0.00553010  0.43959917
   0.75960344  0.25281043  0.50613280
   0.75653138  0.40055331  0.52517103
Direct configuration=     9
  -0.00003197  0.00000893  0.00229662
   0.49996819  0.50002193  0.00229247
  -0.00004261  0.50010981  0.06503131
   0.49986179 -0.00006391  0.06495944
   0.00031697 -0.00018736  0.12765620
   0.49974623  0.50022576  0.12766855
  -0.00041401  0.49963127  0.19196752
   0.50056228  0.00041430  0.19181462
   0.00040343 -0.00047137  0.25441515
   0.49906227  0.50046666  0.25415137
  -0.00173320  0.49906346  0.31749335
   0.50048211  0.00062023  0.31726632
  -0.00513402  0.00111933  0.37917003
   0.49963565  0.49569542  0.37877416
  -0.00470353  0.49868106  0.44155441
   0.49229537 -0.00505260  0.43902061
   0.76177590  0.25207027  0.50699119
   0.75794916  0.40296406  0.52647343
Direct configuration=    10
  -0.00004442  0.00001848  0.00235225
   0.49996884  0.50001466  0.00234703
  -0.00004927  0.50011346  0.06512480
   0.49985619 -0.00006540  0.06505463
   0.00035002 -0.00022454  0.12757685
   0.49970917  0.50026637  0.12759113
  -0.00041333  0.49963976  0.19195704
   0.50055328  0.00041159  0.19180328
   0.00038728 -0.00046640  0.25440476
   0.49904410  0.50045440  0.25414926
  -0.00180001  0.49902672  0.31743819
   0.50042778  0.00060119  0.31723011
  -0.00568604  0.00125451  0.37895735
   0.49967460  0.49529720  0.37857559
  -0.00524527  0.49824360  0.44139688
   0.49228862 -0.00488590  0.43881863
   0.76253434  0.25181187  0.50729087
   0.75844412  0.40380568  0.52692812
Direct configuration=    11
  -0.00006300  0.00002031  0.00236878
   0.49996105  0.50000180  0.00236259
  -0.00007414  0.50008973  0.06514167
   0.49986389 -0.00005377  0.06507558
   0.00033197 -0.00022600  0.12764253
   0.49970364  0.50025824  0.12765727
  -0.00042151  0.49964455  0.19190340
   0.50052157  0.00039417  0.19175471
   0.00035795 -0.00048168  0.25436917
   0.49902878  0.50044187  0.25413034
  -0.00169566  0.49915105  0.31729562
   0.50012523  0.00035190  0.31710680
  -0.00557465  0.00088721  0.37885975
   0.49925131  0.49554915  0.37850802
  -0.00538709  0.49812488  0.44126541
   0.49218542 -0.00489035  0.43875323
   0.76307109  0.25213708  0.50757104
   0.75881416  0.40391711  0.52723086
Direct configuration=    12
  -0.00011875  0.00002581  0.00241835
   0.49993767  0.49996324  0.00240927
  -0.00014874  0.50001853  0.06519226
   0.49988698 -0.00001888  0.06513841
   0.00027781 -0.00023038  0.12783957
   0.49968703  0.50023385  0.12785571
  -0.00044607  0.49965892  0.19174247
   0.50042646  0.00034191  0.19160901
   0.00026996 -0.00052752  0.25426239
   0.49898283  0.50040429  0.25407361
  -0.00138261  0.49952404  0.31686790
   0.49921759 -0.00039600  0.31673687
  -0.00524050 -0.00021469  0.37856697
   0.49798145  0.49630501  0.37830532
  -0.00581256  0.49776874  0.44087102
   0.49187581 -0.00490372  0.43855701
   0.76468135  0.25311272  0.50841157
   0.75992428  0.40425139  0.52813908
Direct configuration=    13
  -0.00023025  0.00003680  0.00251748
   0.49989093  0.49988612  0.00250263
  -0.00029794  0.49987615  0.06529343
   0.49993316  0.00005089  0.06526408
   0.00016949 -0.00023913  0.12823365
   0.49965382  0.50018506  0.12825259
  -0.00049518  0.49968766  0.19142062
   0.50023623  0.00023739  0.19131760
   0.00009398 -0.00061921  0.25404884
   0.49889093  0.50032913  0.25396013
  -0.00075650  0.50027003  0.31601246
   0.49740231 -0.00189178  0.31599701
  -0.00457219 -0.00241849  0.37798139
   0.49544173  0.49781673  0.37789990
  -0.00666351  0.49705644  0.44008224
   0.49125660 -0.00493047  0.43816458
   0.76790185  0.25506399  0.51009262
   0.76214453  0.40491994  0.52995552
Direct configuration=    14
  -0.00045325  0.00005879  0.00271576
   0.49979744  0.49973188  0.00268935
  -0.00059634  0.49959138  0.06549578
   0.50002553  0.00019043  0.06551542
  -0.00004714 -0.00025663  0.12902180
   0.49958741  0.50008749  0.12904634
  -0.00059340  0.49974515  0.19077691
   0.49985577  0.00002834  0.19073477
  -0.00025797 -0.00080258  0.25362173
   0.49870712  0.50017882  0.25373319
   0.00049571  0.50176200  0.31430158
   0.49377175 -0.00488336  0.31451730
  -0.00323557 -0.00682609  0.37681025
   0.49036229  0.50084016  0.37708908
  -0.00836539  0.49563185  0.43850468
   0.49001816 -0.00498395  0.43737971
   0.77434285  0.25896653  0.51345471
   0.76658501  0.40625705  0.53358840
Direct configuration=    15
  -0.00036831  0.00005042  0.00264024
   0.49983305  0.49979063  0.00261823
  -0.00048269  0.49969985  0.06541871
   0.49999035  0.00013728  0.06541969
   0.00003537 -0.00024997  0.12872161
   0.49961270  0.50012465  0.12874402
  -0.00055599  0.49972325  0.19102209
   0.50000068  0.00010796  0.19095676
  -0.00012391 -0.00073274  0.25378441
   0.49877713  0.50023607  0.25381963
   0.00001876  0.50119374  0.31495322
   0.49515457 -0.00374392  0.31508090
  -0.00374466 -0.00514731  0.37725632
   0.49229696  0.49968859  0.37739791
  -0.00771717  0.49617445  0.43910555
   0.49048986 -0.00496358  0.43767865
   0.77188959  0.25748012  0.51217415
   0.76489371  0.40574777  0.53220470
Direct configuration=    16
  -0.00039569  0.00000302  0.00267026
   0.49976312  0.49978687  0.00264739
  -0.00050907  0.49967968  0.06548661
   0.49994309  0.00010758  0.06549334
  -0.00005531 -0.00024610  0.12882863
   0.49959034  0.50006705  0.12884796
  -0.00060517  0.49970905  0.19102935
   0.49988018  0.00005031  0.19097985
  -0.00059594 -0.00053560  0.25342199
   0.49894209  0.49984583  0.25347903
  -0.00065491  0.50059065  0.31466696
   0.49519031 -0.00349058  0.31481210
  -0.00417058 -0.00528754  0.37697217
   0.49192926  0.49947243  0.37714326
  -0.00801862  0.49589129  0.43879351
   0.49043400 -0.00479225  0.43762885
   0.77334214  0.25977989  0.51314664
   0.76599074  0.40468567  0.53294887
Direct configuration=    17
  -0.00043550 -0.00006591  0.00271392
   0.49966143  0.49978140  0.00268980
  -0.00054742  0.49965035  0.06558534
   0.49987437  0.00006438  0.06560042
  -0.00018716 -0.00024047  0.12898426
   0.49955783  0.49998330  0.12899911
  -0.00067668  0.49968840  0.19103990
   0.49970496 -0.00003351  0.19101342
  -0.00128229 -0.00024895  0.25289501
   0.49918195  0.49927839  0.25298378
  -0.00163448  0.49971371  0.31425072
   0.49524228 -0.00312219  0.31442125
  -0.00478989 -0.00549144  0.37655900
   0.49139460  0.49915813  0.37677298
  -0.00845694  0.49547953  0.43833979
   0.49035278 -0.00454312  0.43755643
   0.77545427  0.26312395  0.51456072
   0.76758591  0.40314129  0.53403095
Direct configuration=    18
  -0.00044922 -0.00011200  0.00273209
   0.49960101  0.49978716  0.00270819
  -0.00055434  0.49965245  0.06563704
   0.49981881  0.00002408  0.06565348
  -0.00025878 -0.00024092  0.12901454
   0.49953331  0.49993835  0.12902624
  -0.00070827  0.49968314  0.19107543
   0.49959280 -0.00009500  0.19105846
  -0.00164013 -0.00013366  0.25260495
   0.49925901  0.49899187  0.25269707
  -0.00229989  0.49911383  0.31409104
   0.49546893 -0.00274317  0.31425540
  -0.00528148 -0.00532045  0.37636714
   0.49140237  0.49875349  0.37657950
  -0.00862920  0.49533818  0.43814892
   0.49036294 -0.00441090  0.43754992
   0.77650995  0.26358359  0.51507778
   0.76827219  0.40350721  0.53471957
Direct configuration=    19
  -0.00049038 -0.00025030  0.00278660
   0.49941975  0.49980443  0.00276338
  -0.00057508  0.49965875  0.06579213
   0.49965211 -0.00009681  0.06581266
  -0.00047363 -0.00024227  0.12910540
   0.49945974  0.49980349  0.12910765
  -0.00080302  0.49966737  0.19118203
   0.49925631 -0.00027947  0.19119360
  -0.00271366  0.00021219  0.25173479
   0.49949019  0.49813232  0.25183696
  -0.00429615  0.49731420  0.31361203
   0.49614890 -0.00160608  0.31375788
  -0.00675622 -0.00480749  0.37579154
   0.49142566  0.49753957  0.37599904
  -0.00914598  0.49491412  0.43757631
   0.49039343 -0.00401424  0.43753039
   0.77967701  0.26496252  0.51662896
   0.77033103  0.40460495  0.53678544
Direct configuration=    20
  -0.00050226 -0.00029019  0.00280232
   0.49936747  0.49980942  0.00277930
  -0.00058107  0.49966057  0.06583687
   0.49960402 -0.00013168  0.06585858
  -0.00053560 -0.00024265  0.12913160
   0.49943852  0.49976458  0.12913114
  -0.00083035  0.49966282  0.19121277
   0.49915925 -0.00033267  0.19123258
  -0.00302332  0.00031195  0.25148379
   0.49955687  0.49788438  0.25158886
  -0.00487197  0.49679509  0.31347386
   0.49634503 -0.00127809  0.31361437
  -0.00718161 -0.00465952  0.37562552
   0.49143238  0.49718942  0.37583160
  -0.00929504  0.49479179  0.43741114
   0.49040223 -0.00389983  0.43752475
   0.78059055  0.26536027  0.51707640
   0.77092490  0.40492159  0.53738134
Direct configuration=    21
  -0.00050565 -0.00030160  0.00280682
   0.49935251  0.49981084  0.00278385
  -0.00058278  0.49966109  0.06584966
   0.49959027 -0.00014165  0.06587171
  -0.00055333 -0.00024277  0.12913910
   0.49943245  0.49975346  0.12913785
  -0.00083817  0.49966152  0.19122157
   0.49913149 -0.00034789  0.19124373
  -0.00311189  0.00034049  0.25141200
   0.49957594  0.49781346  0.25151790
  -0.00503667  0.49664662  0.31343434
   0.49640113 -0.00118428  0.31357332
  -0.00730328 -0.00461720  0.37557803
   0.49143430  0.49708927  0.37578371
  -0.00933768  0.49475681  0.43736390
   0.49040474 -0.00386710  0.43752314
   0.78085184  0.26547403  0.51720438
   0.77109477  0.40501216  0.53755178
Direct configuration=    22
  -0.00050385 -0.00029554  0.00280443
   0.49936046  0.49981008  0.00278143
  -0.00058187  0.49966082  0.06584286
   0.49959758 -0.00013635  0.06586474
  -0.00054391 -0.00024271  0.12913512
   0.49943567  0.49975937  0.12913429
  -0.00083402  0.49966221  0.19121690
   0.49914623 -0.00033981  0.19123781
  -0.00306483  0.00032533  0.25145014
   0.49956581  0.49785113  0.25155559
  -0.00494918  0.49672549  0.31345533
   0.49637133 -0.00123411  0.31359512
  -0.00723865 -0.00463968  0.37560325
   0.49143328  0.49714247  0.37580915
  -0.00931503  0.49477539  0.43738899
   0.49040341 -0.00388449  0.43752400
   0.78071303  0.26541360  0.51713639
   0.77100453  0.40496405  0.53746123
Direct configuration=    23
  -0.00051668 -0.00030786  0.00281430
   0.49934757  0.49980413  0.00279279
  -0.00058801  0.49966808  0.06584910
   0.49956337 -0.00016236  0.06586711
  -0.00057092 -0.00025855  0.12908131
   0.49940765  0.49974722  0.12907986
  -0.00081595  0.49969773  0.19115209
   0.49902021 -0.00044471  0.19116813
  -0.00288038  0.00002370  0.25148660
   0.49922501  0.49807534  0.25157087
  -0.00490007  0.49685845  0.31343596
   0.49624347 -0.00137580  0.31354619
  -0.00726002 -0.00450791  0.37560928
   0.49159805  0.49706662  0.37577891
  -0.00923661  0.49494588  0.43740935
   0.49037542 -0.00398997  0.43752288
   0.78088052  0.26538180  0.51720580
   0.77110737  0.40509546  0.53762624
Direct configuration=    24
  -0.00055518 -0.00034482  0.00284393
   0.49930892  0.49978627  0.00282685
  -0.00060645  0.49968988  0.06586780
   0.49946077 -0.00024038  0.06587424
  -0.00065194 -0.00030606  0.12891988
   0.49932357  0.49971078  0.12891656
  -0.00076174  0.49980428  0.19095769
   0.49864212 -0.00075943  0.19095911
  -0.00232703 -0.00088118  0.25159598
   0.49820262  0.49874794  0.25161670
  -0.00475274  0.49725732  0.31337784
   0.49585989 -0.00180084  0.31339939
  -0.00732412 -0.00411259  0.37562736
   0.49209234  0.49683907  0.37568819
  -0.00900137  0.49545732  0.43747042
   0.49029147 -0.00430642  0.43751955
   0.78138297  0.26528641  0.51741401
   0.77141591  0.40548969  0.53812128
Direct configuration=    25
  -0.00063217 -0.00041874  0.00290319
   0.49923162  0.49975055  0.00289498
  -0.00064333  0.49973347  0.06590520
   0.49925555 -0.00039641  0.06588850
  -0.00081398 -0.00040110  0.12859702
   0.49915541  0.49963790  0.12858998
  -0.00065332  0.50001738  0.19056888
   0.49788595 -0.00138885  0.19054106
  -0.00122032 -0.00269093  0.25181473
   0.49615784  0.50009315  0.25170835
  -0.00445809  0.49805505  0.31326161
   0.49509272 -0.00265092  0.31310579
  -0.00745234 -0.00332194  0.37566353
   0.49308093  0.49638398  0.37550675
  -0.00853089  0.49648022  0.43759255
   0.49012357 -0.00493932  0.43751288
   0.78238788  0.26509563  0.51783044
   0.77203297  0.40627814  0.53911135
Direct configuration=    26
  -0.00057670 -0.00036548  0.00286050
   0.49928731  0.49977629  0.00284590
  -0.00061676  0.49970207  0.06587825
   0.49940340 -0.00028400  0.06587823
  -0.00069724 -0.00033263  0.12882962
   0.49927656  0.49969041  0.12882527
  -0.00073143  0.49986385  0.19084900
   0.49843073 -0.00093538  0.19084224
  -0.00201765 -0.00138709  0.25165713
   0.49763101  0.49912399  0.25164232
  -0.00467037  0.49748032  0.31334535
   0.49564543 -0.00203848  0.31331732
  -0.00735997 -0.00389156  0.37563747
   0.49236870  0.49671185  0.37563747
  -0.00886985  0.49574327  0.43750456
   0.49024453 -0.00448335  0.43751768
   0.78166389  0.26523308  0.51753042
   0.77158841  0.40571010  0.53839805
Direct configuration=    27
  -0.00059264 -0.00037310  0.00286998
   0.49927735  0.49976689  0.00285665
  -0.00062876  0.49970350  0.06587413
   0.49937366 -0.00030395  0.06587080
  -0.00073091 -0.00034243  0.12877697
   0.49925396  0.49967132  0.12877240
  -0.00076612  0.49984786  0.19079413
   0.49836116 -0.00098470  0.19078321
  -0.00191548 -0.00159225  0.25168368
   0.49738277  0.49926084  0.25165196
  -0.00463073  0.49758660  0.31333908
   0.49555111 -0.00214299  0.31328773
  -0.00735380 -0.00377272  0.37564799
   0.49251802  0.49666024  0.37561809
  -0.00878576  0.49590106  0.43753297
   0.49022610 -0.00457200  0.43751705
   0.78176316  0.26559316  0.51764077
   0.77169692  0.40540993  0.53847919
Direct configuration=    28
  -0.00063944 -0.00039545  0.00289779
   0.49924810  0.49973930  0.00288822
  -0.00066399  0.49970771  0.06586205
   0.49928638 -0.00036251  0.06584900
  -0.00082974 -0.00037121  0.12862242
   0.49918766  0.49961531  0.12861722
  -0.00086792  0.49980092  0.19063310
   0.49815699 -0.00112943  0.19060995
  -0.00161560 -0.00219439  0.25176160
   0.49665423  0.49966248  0.25168028
  -0.00451439  0.49789853  0.31332067
   0.49527429 -0.00244974  0.31320091
  -0.00733570 -0.00342394  0.37567884
   0.49295624  0.49650878  0.37556121
  -0.00853898  0.49636413  0.43761636
   0.49017198 -0.00483218  0.43751521
   0.78205448  0.26664995  0.51796461
   0.77201540  0.40452900  0.53871733
Direct configuration=    29
  -0.00073302 -0.00044015  0.00295342
   0.49918961  0.49968413  0.00295135
  -0.00073444  0.49971613  0.06583789
   0.49911182 -0.00047964  0.06580539
  -0.00102740 -0.00042875  0.12831334
   0.49905504  0.49950329  0.12830687
  -0.00107154  0.49970704  0.19031105
   0.49774863 -0.00141890  0.19026344
  -0.00101585 -0.00339866  0.25191745
   0.49519716  0.50046576  0.25173691
  -0.00428170  0.49852239  0.31328386
   0.49472065 -0.00306324  0.31302727
  -0.00729949 -0.00272637  0.37574054
   0.49383269  0.49620585  0.37544745
  -0.00804541  0.49729029  0.43778314
   0.49006375 -0.00535255  0.43751153
   0.78263714  0.26876354  0.51861229
   0.77265236  0.40276712  0.53919359
Direct configuration=    30
  -0.00067542 -0.00041263  0.00291918
   0.49922561  0.49971809  0.00291249
  -0.00069107  0.49971094  0.06585276
   0.49921927 -0.00040755  0.06583223
  -0.00090573 -0.00039333  0.12850359
   0.49913667  0.49957224  0.12849791
  -0.00094621  0.49976483  0.19050929
   0.49799999 -0.00124072  0.19047673
  -0.00138502 -0.00265739  0.25182152
   0.49609404  0.49997131  0.25170205
  -0.00442493  0.49813838  0.31330652
   0.49506144 -0.00268561  0.31313415
  -0.00732178 -0.00315575  0.37570256
   0.49329320  0.49639231  0.37551748
  -0.00834922  0.49672020  0.43768048
   0.49013037 -0.00503224  0.43751380
   0.78227849  0.26746254  0.51821361
   0.77226029  0.40385162  0.53890043
Direct configuration=    31
  -0.00066830 -0.00040924  0.00291495
   0.49923006  0.49972228  0.00290769
  -0.00068572  0.49971030  0.06585460
   0.49923253 -0.00039865  0.06583554
  -0.00089071 -0.00038896  0.12852708
   0.49914675  0.49958075  0.12852149
  -0.00093073  0.49977196  0.19053376
   0.49803102 -0.00121872  0.19050306
  -0.00143060 -0.00256587  0.25180968
   0.49620477  0.49991027  0.25169775
  -0.00444261  0.49809097  0.31330932
   0.49510351 -0.00263899  0.31314735
  -0.00732453 -0.00320876  0.37569787
   0.49322660  0.49641533  0.37552612
  -0.00838673  0.49664982  0.43766781
   0.49013859 -0.00499270  0.43751408
   0.78223421  0.26730193  0.51816439
   0.77221189  0.40398551  0.53886424
Direct configuration=    32
  -0.00067249 -0.00041123  0.00291744
   0.49922744  0.49971981  0.00291051
  -0.00068887  0.49971068  0.06585352
   0.49922473 -0.00040388  0.06583359
  -0.00089955 -0.00039153  0.12851327
   0.49914082  0.49957575  0.12850762
  -0.00093983  0.49976776  0.19051937
   0.49801277 -0.00123166  0.19048758
  -0.00140379 -0.00261969  0.25181664
   0.49613965  0.49994617  0.25170028
  -0.00443221  0.49811885  0.31330767
   0.49507877 -0.00266640  0.31313959
  -0.00732291 -0.00317758  0.37570063
   0.49326577  0.49640180  0.37552104
  -0.00836467  0.49669121  0.43767526
   0.49013376 -0.00501596  0.43751391
   0.78226025  0.26739638  0.51819334
   0.77224035  0.40390677  0.53888552
Direct configuration=    33
  -0.00069717 -0.00041223  0.00292092
   0.49921890  0.49970085  0.00291465
  -0.00071688  0.49969469  0.06582101
   0.49920190 -0.00041262  0.06579982
  -0.00095036 -0.00039419  0.12847052
   0.49912220  0.49953958  0.12846559
  -0.00110490  0.49962866  0.19049419
   0.49806907 -0.00115405  0.19046117
  -0.00156117 -0.00254144  0.25178932
   0.49616627  0.49981060  0.25167089
  -0.00447495  0.49808487  0.31332739
   0.49511041 -0.00262296  0.31315577
  -0.00727316 -0.00310016  0.37571098
   0.49335384  0.49639849  0.37552503
  -0.00827138  0.49678584  0.43770449
   0.49015199 -0.00502910  0.43751322
   0.78233466  0.26759577  0.51826865
   0.77232074  0.40374467  0.53898317
Direct configuration=    34
  -0.00077123 -0.00041523  0.00293138
   0.49919328  0.49964396  0.00292705
  -0.00080091  0.49964673  0.06572347
   0.49913339 -0.00043883  0.06569850
  -0.00110281 -0.00040219  0.12834226
   0.49906634  0.49943109  0.12833948
  -0.00160009  0.49921133  0.19041866
   0.49823795 -0.00092123  0.19038197
  -0.00203329 -0.00230668  0.25170736
   0.49624610  0.49940391  0.25158272
  -0.00460318  0.49798291  0.31338655
   0.49520533 -0.00249261  0.31320433
  -0.00712391 -0.00286790  0.37574203
   0.49361804  0.49638856  0.37553701
  -0.00799149  0.49706970  0.43779216
   0.49020671 -0.00506855  0.43751115
   0.78255788  0.26819392  0.51849457
   0.77256189  0.40325836  0.53927613
Direct configuration=    35
  -0.00091935 -0.00042122  0.00295228
   0.49914203  0.49953017  0.00295185
  -0.00096896  0.49955081  0.06552840
   0.49899638 -0.00049126  0.06549586
  -0.00140772 -0.00041817  0.12808574
   0.49895461  0.49921411  0.12808728
  -0.00259046  0.49837668  0.19026760
   0.49857571 -0.00045557  0.19022356
  -0.00297754 -0.00183717  0.25154343
   0.49640577  0.49859053  0.25140639
  -0.00485964  0.49777898  0.31350488
   0.49539517 -0.00223193  0.31330145
  -0.00682540 -0.00240337  0.37580413
   0.49414646  0.49636870  0.37556096
  -0.00743171  0.49763744  0.43796751
   0.49031613 -0.00514744  0.43750701
   0.78300433  0.26939022  0.51894642
   0.77304420  0.40228574  0.53986203
Direct configuration=    36
  -0.00121559 -0.00043321  0.00299410
   0.49903953  0.49930261  0.00300146
  -0.00130508  0.49935897  0.06513825
   0.49872235 -0.00059611  0.06509057
  -0.00201752 -0.00045014  0.12757271
   0.49873116  0.49878014  0.12758287
  -0.00457122  0.49670738  0.18996548
   0.49925123  0.00047573  0.18990674
  -0.00486603 -0.00089816  0.25121559
   0.49672510  0.49696377  0.25105372
  -0.00537255  0.49737114  0.31374152
   0.49577485 -0.00171056  0.31349570
  -0.00622839 -0.00147431  0.37592833
   0.49520329  0.49632900  0.37560886
  -0.00631216  0.49877291  0.43831821
   0.49053499 -0.00530521  0.43749872
   0.78389722  0.27178282  0.51985012
   0.77400882  0.40034049  0.54103383
Direct configuration=    37
  -0.00111004 -0.00042894  0.00297920
   0.49907605  0.49938369  0.00298378
  -0.00118532  0.49942732  0.06527726
   0.49881998 -0.00055875  0.06523497
  -0.00180025 -0.00043875  0.12775550
   0.49881077  0.49893476  0.12776259
  -0.00386549  0.49730214  0.19007312
   0.49901055  0.00014391  0.19001962
  -0.00419317 -0.00123272  0.25133240
   0.49661132  0.49754337  0.25117937
  -0.00518980  0.49751645  0.31365721
   0.49563957 -0.00189632  0.31342649
  -0.00644110 -0.00180532  0.37588408
   0.49482675  0.49634314  0.37559180
  -0.00671105  0.49836835  0.43819325
   0.49045701 -0.00524900  0.43750168
   0.78357909  0.27093036  0.51952814
   0.77366513  0.40103357  0.54061633
Direct configuration=    38
  -0.00115088 -0.00044007  0.00296303
   0.49904695  0.49935827  0.00296809
  -0.00122868  0.49940829  0.06522103
   0.49876486 -0.00058766  0.06517839
  -0.00183532 -0.00050851  0.12769894
   0.49870797  0.49893070  0.12770693
  -0.00398996  0.49723136  0.19002464
   0.49894804  0.00011781  0.18997007
  -0.00434252 -0.00120422  0.25128927
   0.49657965  0.49744196  0.25113952
  -0.00519480  0.49752056  0.31366662
   0.49564131 -0.00188291  0.31344069
  -0.00633728 -0.00174325  0.37591018
   0.49491032  0.49640209  0.37562105
  -0.00657057  0.49846658  0.43823725
   0.49055055 -0.00519326  0.43751088
   0.78371900  0.27095931  0.51960774
   0.77378135  0.40104020  0.54084245
Direct configuration=    39
  -0.00127341 -0.00047344  0.00291451
   0.49895966  0.49928203  0.00292103
  -0.00135875  0.49935121  0.06505234
   0.49859948 -0.00067440  0.06500866
  -0.00194051 -0.00071780  0.12752927
   0.49839957  0.49891854  0.12753997
  -0.00436337  0.49701901  0.18987917
   0.49876053  0.00003949  0.18982143
  -0.00479056 -0.00111873  0.25115989
   0.49648464  0.49713772  0.25101996
  -0.00520979  0.49753291  0.31369486
   0.49564650 -0.00184269  0.31348329
  -0.00602582 -0.00155703  0.37598849
   0.49516104  0.49657892  0.37570880
  -0.00614913  0.49876127  0.43836925
   0.49083118 -0.00502605  0.43753849
   0.78413873  0.27104619  0.51984653
   0.77413001  0.40106010  0.54152082
Direct configuration=    40
  -0.00132258 -0.00048684  0.00289505
   0.49892464  0.49925143  0.00290214
  -0.00141095  0.49932831  0.06498465
   0.49853311 -0.00070921  0.06494055
  -0.00198272 -0.00080178  0.12746119
   0.49827581  0.49891366  0.12747297
  -0.00451321  0.49693380  0.18982079
   0.49868528  0.00000806  0.18976179
  -0.00497035 -0.00108443  0.25110797
   0.49644651  0.49701564  0.25097199
  -0.00521580  0.49753787  0.31370619
   0.49564859 -0.00182655  0.31350038
  -0.00590083 -0.00148230  0.37601992
   0.49526165  0.49664988  0.37574402
  -0.00598001  0.49887952  0.43842222
   0.49094379 -0.00495896  0.43754958
   0.78430716  0.27108105  0.51994235
   0.77426991  0.40106809  0.54179304
Direct configuration=    41
  -0.00129590 -0.00047957  0.00290561
   0.49894364  0.49926804  0.00291239
  -0.00138262  0.49934074  0.06502139
   0.49856913 -0.00069032  0.06497752
  -0.00195981 -0.00075620  0.12749814
   0.49834298  0.49891631  0.12750933
  -0.00443189  0.49698005  0.18985247
   0.49872612  0.00002512  0.18979416
  -0.00487278 -0.00110305  0.25113615
   0.49646721  0.49708189  0.25099803
  -0.00521254  0.49753518  0.31370004
   0.49564746 -0.00183531  0.31349110
  -0.00596866 -0.00152286  0.37600286
   0.49520705  0.49661137  0.37572491
  -0.00607179  0.49881535  0.43839347
   0.49088267 -0.00499537  0.43754356
   0.78421575  0.27106213  0.51989035
   0.77419398  0.40106376  0.54164530
Direct configuration=    42
  -0.00136358 -0.00051609  0.00283920
   0.49887041  0.49923493  0.00284584
  -0.00145709  0.49931140  0.06493255
   0.49846153 -0.00075364  0.06489077
  -0.00196652 -0.00094862  0.12742632
   0.49808600  0.49897019  0.12743821
  -0.00439396  0.49711454  0.18976586
   0.49838062 -0.00025685  0.18970721
  -0.00490878 -0.00124059  0.25108196
   0.49627726  0.49713649  0.25095727
  -0.00511568  0.49764037  0.31367716
   0.49556988 -0.00190853  0.31348998
  -0.00578219 -0.00151677  0.37605603
   0.49525713  0.49679422  0.37580127
  -0.00587228  0.49887673  0.43846178