  72  72   0   0
  0.2793355E+02  0.1089000E-08  0.7700393E-09  0.2398379E-08  0.5000000E-15
  1.000000000000000E-004
  CAR 
 unknown system                          
     11.31712435    -10.35442814  301      0.65413708      1.00000000
    -10.354  0.0000E+00  0.0000E+00  0.0000E+00  0.0000E+00
    -10.282  0.0000E+00  0.0000E+00  0.0000E+00  0.0000E+00
    -10.210  0.0000E+00  0.0000E+00  0.0000E+00  0.0000E+00
    -10.138  0.0000E+00  0.0000E+00  0.0000E+00  0.0000E+00
    -10.065  0.0000E+00  0.0000E+00  0.0000E+00  0.0000E+00
     -9.993 -0.3078E-31 -0.3078E-31 -0.2224E-32 -0.2224E-32
     -9.921 -0.9580E-29 -0.9580E-29 -0.6942E-30 -0.6942E-30
     -9.849 -0.2297E-26 -0.2297E-26 -0.1666E-27 -0.1666E-27
     -9.777 -0.4232E-24 -0.4232E-24 -0.3074E-25 -0.3074E-25
     -9.704 -0.5988E-22 -0.5988E-22 -0.4356E-23 -0.4356E-23
     -9.632 -0.6505E-20 -0.6505E-20 -0.4743E-21 -0.4743E-21
     -9.560 -0.5423E-18 -0.5423E-18 -0.3965E-19 -0.3965E-19
     -9.488 -0.3361E-16 -0.3361E-16 -0.2467E-17 -0.2467E-17
     -9.415 -0.1640E-14 -0.1640E-14 -0.1209E-15 -0.1209E-15
     -9.343 -0.6119E-13 -0.6119E-13 -0.4541E-14 -0.4541E-14
     -9.271 -0.1744E-11 -0.1744E-11 -0.1306E-12 -0.1306E-12
     -9.199 -0.3792E-10 -0.3792E-10 -0.2870E-11 -0.2870E-11
     -9.126 -0.6269E-09 -0.6269E-09 -0.4815E-10 -0.4815E-10
     -9.054 -0.7857E-08 -0.7857E-08 -0.6157E-09 -0.6157E-09
     -8.982 -0.7432E-07 -0.7432E-07 -0.5984E-08 -0.5984E-08
     -8.910 -0.5270E-06 -0.5270E-06 -0.4405E-07 -0.4405E-07
     -8.837 -0.2772E-05 -0.2772E-05 -0.2443E-06 -0.2443E-06
     -8.765 -0.1062E-04 -0.1062E-04 -0.1012E-05 -0.1012E-05
     -8.693 -0.2857E-04 -0.2857E-04 -0.3076E-05 -0.3076E-05
     -8.621 -0.4855E-04 -0.4855E-04 -0.6583E-05 -0.6583E-05
     -8.548 -0.2753E-04 -0.2753E-04 -0.8572E-05 -0.8572E-05
     -8.476  0.1093E-03  0.1093E-03 -0.6745E-06 -0.6745E-06
     -8.404  0.4111E-03  0.4111E-03  0.2902E-04  0.2902E-04
     -8.332  0.8388E-03  0.8388E-03  0.8962E-04  0.8962E-04
     -8.260  0.1278E-02  0.1278E-02  0.1819E-03  0.1819E-03
     -8.187  0.1631E-02  0.1631E-02  0.2997E-03  0.2997E-03
     -8.115  0.1932E-02  0.1932E-02  0.4392E-03  0.4392E-03
     -8.043  0.2324E-02  0.2324E-02  0.6071E-03  0.6071E-03
     -7.971  0.2821E-02  0.2821E-02  0.8109E-03  0.8109E-03
     -7.898  0.3124E-02  0.3124E-02  0.1037E-02  0.1037E-02
     -7.826  0.2876E-02  0.2876E-02  0.1244E-02  0.1244E-02
     -7.754  0.2106E-02  0.2106E-02  0.1396E-02  0.1396E-02
     -7.682  0.1337E-02  0.1337E-02  0.1493E-02  0.1493E-02
     -7.609  0.1169E-02  0.1169E-02  0.1577E-02  0.1577E-02
     -7.537  0.1655E-02  0.1655E-02  0.1697E-02  0.1697E-02
     -7.465  0.2183E-02  0.2183E-02  0.1855E-02  0.1855E-02
     -7.393  0.2261E-02  0.2261E-02  0.2018E-02  0.2018E-02
     -7.320  0.2239E-02  0.2239E-02  0.2180E-02  0.2180E-02
     -7.248  0.2863E-02  0.2863E-02  0.2387E-02  0.2387E-02
     -7.176  0.4254E-02  0.4254E-02  0.2694E-02  0.2694E-02
     -7.104  0.5673E-02  0.5673E-02  0.3104E-02  0.3104E-02
     -7.031  0.6299E-02  0.6299E-02  0.3559E-02  0.3559E-02
     -6.959  0.6098E-02  0.6098E-02  0.3999E-02  0.3999E-02
     -6.887  0.5743E-02  0.5743E-02  0.4414E-02  0.4414E-02
     -6.815  0.5638E-02  0.5638E-02  0.4822E-02  0.4822E-02
     -6.743  0.5501E-02  0.5501E-02  0.5219E-02  0.5219E-02
     -6.670  0.4995E-02  0.4995E-02  0.5580E-02  0.5580E-02
     -6.598  0.4184E-02  0.4184E-02  0.5882E-02  0.5882E-02
     -6.526  0.3206E-02  0.3206E-02  0.6114E-02  0.6114E-02
     -6.454  0.2115E-02  0.2115E-02  0.6266E-02  0.6266E-02
     -6.381  0.1324E-02  0.1324E-02  0.6362E-02  0.6362E-02
     -6.309  0.1609E-02  0.1609E-02  0.6478E-02  0.6478E-02
     -6.237  0.3234E-02  0.3234E-02  0.6712E-02  0.6712E-02
     -6.165  0.5384E-02  0.5384E-02  0.7101E-02  0.7101E-02
     -6.092  0.6988E-02  0.6988E-02  0.7606E-02  0.7606E-02
     -6.020  0.8003E-02  0.8003E-02  0.8184E-02  0.8184E-02
     -5.948  0.9129E-02  0.9129E-02  0.8843E-02  0.8843E-02
     -5.876  0.1024E-01  0.1024E-01  0.9583E-02  0.9583E-02
     -5.803  0.1021E-01  0.1021E-01  0.1032E-01  0.1032E-01
     -5.731  0.8642E-02  0.8642E-02  0.1094E-01  0.1094E-01
     -5.659  0.6763E-02  0.6763E-02  0.1143E-01  0.1143E-01
     -5.587  0.5860E-02  0.5860E-02  0.1186E-01  0.1186E-01
     -5.514  0.5714E-02  0.5714E-02  0.1227E-01  0.1227E-01
     -5.442  0.5465E-02  0.5465E-02  0.1266E-01  0.1266E-01
     -5.370  0.5449E-02  0.5449E-02  0.1306E-01  0.1306E-01
     -5.298  0.6845E-02  0.6845E-02  0.1355E-01  0.1355E-01
     -5.225  0.9734E-02  0.9734E-02  0.1426E-01  0.1426E-01
     -5.153  0.1269E-01  0.1269E-01  0.1517E-01  0.1517E-01
     -5.081  0.1419E-01  0.1419E-01  0.1620E-01  0.1620E-01
     -5.009  0.1364E-01  0.1364E-01  0.1718E-01  0.1718E-01
     -4.937  0.1149E-01  0.1149E-01  0.1801E-01  0.1801E-01
     -4.864  0.8799E-02  0.8799E-02  0.1865E-01  0.1865E-01
     -4.792  0.6820E-02  0.6820E-02  0.1914E-01  0.1914E-01
     -4.720  0.6476E-02  0.6476E-02  0.1961E-01  0.1961E-01
     -4.648  0.8131E-02  0.8131E-02  0.2020E-01  0.2020E-01
     -4.575  0.1159E-01  0.1159E-01  0.2103E-01  0.2103E-01
     -4.503  0.1631E-01  0.1631E-01  0.2221E-01  0.2221E-01
     -4.431  0.2161E-01  0.2161E-01  0.2377E-01  0.2377E-01
     -4.359  0.2665E-01  0.2665E-01  0.2570E-01  0.2570E-01
     -4.286  0.3055E-01  0.3055E-01  0.2791E-01  0.2791E-01
     -4.214  0.3279E-01  0.3279E-01  0.3027E-01  0.3027E-01
     -4.142  0.3345E-01  0.3345E-01  0.3269E-01  0.3269E-01
     -4.070  0.3356E-01  0.3356E-01  0.3511E-01  0.3511E-01
     -3.997  0.3477E-01  0.3477E-01  0.3763E-01  0.3763E-01
     -3.925  0.3759E-01  0.3759E-01  0.4034E-01  0.4034E-01
     -3.853  0.4098E-01  0.4098E-01  0.4330E-01  0.4330E-01
     -3.781  0.4554E-01  0.4554E-01  0.4659E-01  0.4659E-01
     -3.708  0.5426E-01  0.5426E-01  0.5051E-01  0.5051E-01
     -3.636  0.6726E-01  0.6726E-01  0.5537E-01  0.5537E-01
     -3.564  0.7875E-01  0.7875E-01  0.6106E-01  0.6106E-01
     -3.492  0.8351E-01  0.8351E-01  0.6709E-01  0.6709E-01
     -3.420  0.8371E-01  0.8371E-01  0.7314E-01  0.7314E-01
     -3.347  0.8521E-01  0.8521E-01  0.7929E-01  0.7929E-01
     -3.275  0.8886E-01  0.8886E-01  0.8571E-01  0.8571E-01
     -3.203  0.8974E-01  0.8974E-01  0.9220E-01  0.9220E-01
     -3.131  0.8483E-01  0.8483E-01  0.9832E-01  0.9832E-01
     -3.058  0.7806E-01  0.7806E-01  0.1040E+00  0.1040E+00
     -2.986  0.7636E-01  0.7636E-01  0.1095E+00  0.1095E+00
     -2.914  0.8302E-01  0.8302E-01  0.1155E+00  0.1155E+00
     -2.842  0.9581E-01  0.9581E-01  0.1224E+00  0.1224E+00
     -2.769  0.1099E+00  0.1099E+00  0.1303E+00  0.1303E+00
     -2.697  0.1209E+00  0.1209E+00  0.1391E+00  0.1391E+00
     -2.625  0.1265E+00  0.1265E+00  0.1482E+00  0.1482E+00
     -2.553  0.1277E+00  0.1277E+00  0.1574E+00  0.1574E+00
     -2.480  0.1290E+00  0.1290E+00  0.1668E+00  0.1668E+00
     -2.408  0.1364E+00  0.1364E+00  0.1766E+00  0.1766E+00
     -2.336  0.1528E+00  0.1528E+00  0.1876E+00  0.1876E+00
     -2.264  0.1729E+00  0.1729E+00  0.2001E+00  0.2001E+00
     -2.191  0.1861E+00  0.1861E+00  0.2136E+00  0.2136E+00
     -2.119  0.1843E+00  0.1843E+00  0.2269E+00  0.2269E+00
     -2.047  0.1690E+00  0.1690E+00  0.2391E+00  0.2391E+00
     -1.975  0.1497E+00  0.1497E+00  0.2499E+00  0.2499E+00
     -1.903  0.1352E+00  0.1352E+00  0.2597E+00  0.2597E+00
     -1.830  0.1283E+00  0.1283E+00  0.2690E+00  0.2690E+00
     -1.758  0.1285E+00  0.1285E+00  0.2782E+00  0.2782E+00
     -1.686  0.1362E+00  0.1362E+00  0.2881E+00  0.2881E+00
     -1.614  0.1500E+00  0.1500E+00  0.2989E+00  0.2989E+00
     -1.541  0.1632E+00  0.1632E+00  0.3107E+00  0.3107E+00
     -1.469  0.1696E+00  0.1696E+00  0.3230E+00  0.3230E+00
     -1.397  0.1707E+00  0.1707E+00  0.3353E+00  0.3353E+00
     -1.325  0.1711E+00  0.1711E+00  0.3477E+00  0.3477E+00
     -1.252  0.1724E+00  0.1724E+00  0.3601E+00  0.3601E+00
     -1.180  0.1747E+00  0.1747E+00  0.3727E+00  0.3727E+00
     -1.108  0.1819E+00  0.1819E+00  0.3859E+00  0.3859E+00
     -1.036  0.1989E+00  0.1989E+00  0.4002E+00  0.4002E+00
     -0.963  0.2221E+00  0.2221E+00  0.4163E+00  0.4163E+00
     -0.891  0.2356E+00  0.2356E+00  0.4333E+00  0.4333E+00
     -0.819  0.2207E+00  0.2207E+00  0.4492E+00  0.4492E+00
     -0.747  0.1733E+00  0.1733E+00  0.4617E+00  0.4617E+00
     -0.674  0.1097E+00  0.1097E+00  0.4697E+00  0.4697E+00
     -0.602  0.5462E-01  0.5462E-01  0.4736E+00  0.4736E+00
     -0.530  0.2308E-01  0.2308E-01  0.4753E+00  0.4753E+00
     -0.458  0.1376E-01  0.1376E-01  0.4763E+00  0.4763E+00
     -0.386  0.1656E-01  0.1656E-01  0.4775E+00  0.4775E+00
     -0.313  0.2162E-01  0.2162E-01  0.4790E+00  0.4790E+00
     -0.241  0.2282E-01  0.2282E-01  0.4807E+00  0.4807E+00
     -0.169  0.1884E-01  0.1884E-01  0.4820E+00  0.4820E+00
     -0.097  0.1335E-01  0.1335E-01  0.4830E+00  0.4830E+00
     -0.024  0.1115E-01  0.1115E-01  0.4838E+00  0.4838E+00
      0.048  0.1296E-01  0.1296E-01  0.4848E+00  0.4848E+00
      0.120  0.1542E-01  0.1542E-01  0.4859E+00  0.4859E+00
      0.192  0.1576E-01  0.1576E-01  0.4870E+00  0.4870E+00
      0.265  0.1461E-01  0.1461E-01  0.4881E+00  0.4881E+00
      0.337  0.1430E-01  0.1430E-01  0.4891E+00  0.4891E+00
      0.409  0.1579E-01  0.1579E-01  0.4902E+00  0.4902E+00
      0.481  0.1820E-01  0.1820E-01  0.4915E+00  0.4915E+00
      0.554  0.2018E-01  0.2018E-01  0.4930E+00  0.4930E+00
      0.626  0.2027E-01  0.2027E-01  0.4945E+00  0.4945E+00
      0.698  0.1741E-01  0.1741E-01  0.4957E+00  0.4957E+00
      0.770  0.1253E-01  0.1253E-01  0.4966E+00  0.4966E+00
      0.843  0.8492E-02  0.8492E-02  0.4972E+00  0.4972E+00
      0.915  0.7389E-02  0.7389E-02  0.4978E+00  0.4978E+00
      0.987  0.8586E-02  0.8586E-02  0.4984E+00  0.4984E+00
      1.059  0.1022E-01  0.1022E-01  0.4991E+00  0.4991E+00
      1.131  0.1190E-01  0.1190E-01  0.5000E+00  0.5000E+00
      1.204  0.1441E-01  0.1441E-01  0.5010E+00  0.5010E+00
      1.276  0.1725E-01  0.1725E-01  0.5023E+00  0.5023E+00
      1.348  0.1860E-01  0.1860E-01  0.5036E+00  0.5036E+00
      1.420  0.1764E-01  0.1764E-01  0.5049E+00  0.5049E+00
      1.493  0.1530E-01  0.1530E-01  0.5060E+00  0.5060E+00
      1.565  0.1290E-01  0.1290E-01  0.5069E+00  0.5069E+00
      1.637  0.1110E-01  0.1110E-01  0.5077E+00  0.5077E+00
      1.709  0.9971E-02  0.9971E-02  0.5085E+00  0.5085E+00
      1.782  0.9605E-02  0.9605E-02  0.5092E+00  0.5092E+00
      1.854  0.1036E-01  0.1036E-01  0.5099E+00  0.5099E+00
      1.926  0.1234E-01  0.1234E-01  0.5108E+00  0.5108E+00
      1.998  0.1462E-01  0.1462E-01  0.5119E+00  0.5119E+00
      2.071  0.1548E-01  0.1548E-01  0.5130E+00  0.5130E+00
      2.143  0.1454E-01  0.1454E-01  0.5140E+00  0.5140E+00
      2.215  0.1373E-01  0.1373E-01  0.5150E+00  0.5150E+00
      2.287  0.1489E-01  0.1489E-01  0.5161E+00  0.5161E+00
      2.360  0.1732E-01  0.1732E-01  0.5173E+00  0.5173E+00
      2.432  0.1891E-01  0.1891E-01  0.5187E+00  0.5187E+00
      2.504  0.1853E-01  0.1853E-01  0.5200E+00  0.5200E+00
      2.576  0.1648E-01  0.1648E-01  0.5212E+00  0.5212E+00
      2.649  0.1396E-01  0.1396E-01  0.5222E+00  0.5222E+00
      2.721  0.1255E-01  0.1255E-01  0.5231E+00  0.5231E+00
      2.793  0.1295E-01  0.1295E-01  0.5241E+00  0.5241E+00
      2.865  0.1442E-01  0.1442E-01  0.5251E+00  0.5251E+00
      2.937  0.1598E-01  0.1598E-01  0.5263E+00  0.5263E+00
      3.010  0.1705E-01  0.1705E-01  0.5275E+00  0.5275E+00
      3.082  0.1677E-01  0.1677E-01  0.5287E+00  0.5287E+00
      3.154  0.1443E-01  0.1443E-01  0.5298E+00  0.5298E+00
      3.226  0.1087E-01  0.1087E-01  0.5306E+00  0.5306E+00
      3.299  0.8330E-02  0.8330E-02  0.5312E+00  0.5312E+00
      3.371  0.7985E-02  0.7985E-02  0.5317E+00  0.5317E+00
      3.443  0.8603E-02  0.8603E-02  0.5324E+00  0.5324E+00
      3.515  0.8664E-02  0.8664E-02  0.5330E+00  0.5330E+00
      3.588  0.8669E-02  0.8669E-02  0.5336E+00  0.5336E+00
      3.660  0.9870E-02  0.9870E-02  0.5343E+00  0.5343E+00
      3.732  0.1208E-01  0.1208E-01  0.5352E+00  0.5352E+00
      3.804  0.1434E-01  0.1433E-01  0.5362E+00  0.5362E+00
      3.877  0.1639E-01  0.1639E-01  0.5374E+00  0.5374E+00
      3.949  0.1829E-01  0.1829E-01  0.5387E+00  0.5387E+00
      4.021  0.1933E-01  0.1933E-01  0.5401E+00  0.5401E+00
      4.093  0.1866E-01  0.1866E-01  0.5415E+00  0.5415E+00
      4.166  0.1628E-01  0.1628E-01  0.5427E+00  0.5427E+00
      4.238  0.1268E-01  0.1268E-01  0.5436E+00  0.5436E+00
      4.310  0.8339E-02  0.8339E-02  0.5442E+00  0.5442E+00
      4.382  0.4337E-02  0.4337E-02  0.5445E+00  0.5445E+00
      4.454  0.2651E-02  0.2651E-02  0.5447E+00  0.5447E+00
      4.527  0.4655E-02  0.4655E-02  0.5450E+00  0.5450E+00
      4.599  0.9613E-02  0.9613E-02  0.5457E+00  0.5457E+00
      4.671  0.1484E-01  0.1484E-01  0.5468E+00  0.5468E+00
      4.743  0.1722E-01  0.1722E-01  0.5480E+00  0.5480E+00
      4.816  0.1537E-01  0.1537E-01  0.5491E+00  0.5491E+00
      4.888  0.1101E-01  0.1101E-01  0.5499E+00  0.5499E+00
      4.960  0.7472E-02  0.7472E-02  0.5505E+00  0.5505E+00
      5.032  0.6841E-02  0.6841E-02  0.5510E+00  0.5510E+00
      5.105  0.8762E-02  0.8761E-02  0.5516E+00  0.5516E+00
      5.177  0.1178E-01  0.1178E-01  0.5524E+00  0.5524E+00
      5.249  0.1463E-01  0.1463E-01  0.5535E+00  0.5535E+00
      5.321  0.1650E-01  0.1650E-01  0.5547E+00  0.5547E+00
      5.394  0.1745E-01  0.1745E-01  0.5560E+00  0.5560E+00
      5.466  0.1850E-01  0.1850E-01  0.5573E+00  0.5573E+00
      5.538  0.2035E-01  0.2035E-01  0.5588E+00  0.5588E+00
      5.610  0.2226E-01  0.2226E-01  0.5604E+00  0.5604E+00
      5.683  0.2303E-01  0.2304E-01  0.5620E+00  0.5620E+00
      5.755  0.2240E-01  0.2240E-01  0.5637E+00  0.5637E+00
      5.827  0.2041E-01  0.2041E-01  0.5651E+00  0.5651E+00
      5.899  0.1722E-01  0.1722E-01  0.5664E+00  0.5664E+00
      5.971  0.1426E-01  0.1426E-01  0.5674E+00  0.5674E+00
      6.044  0.1391E-01  0.1391E-01  0.5684E+00  0.5684E+00
      6.116  0.1682E-01  0.1682E-01  0.5696E+00  0.5696E+00
      6.188  0.2086E-01  0.2086E-01  0.5711E+00  0.5711E+00
      6.260  0.2358E-01  0.2358E-01  0.5728E+00  0.5728E+00
      6.333  0.2464E-01  0.2464E-01  0.5746E+00  0.5746E+00
      6.405  0.2513E-01  0.2513E-01  0.5764E+00  0.5764E+00
      6.477  0.2536E-01  0.2537E-01  0.5783E+00  0.5783E+00
      6.549  0.2486E-01  0.2486E-01  0.5801E+00  0.5801E+00
      6.622  0.2377E-01  0.2378E-01  0.5818E+00  0.5818E+00
      6.694  0.2275E-01  0.2274E-01  0.5834E+00  0.5834E+00
      6.766  0.2140E-01  0.2140E-01  0.5850E+00  0.5850E+00
      6.838  0.1902E-01  0.1902E-01  0.5863E+00  0.5863E+00
      6.911  0.1644E-01  0.1644E-01  0.5875E+00  0.5875E+00
      6.983  0.1486E-01  0.1486E-01  0.5886E+00  0.5886E+00
      7.055  0.1347E-01  0.1347E-01  0.5896E+00  0.5896E+00
      7.127  0.1098E-01  0.1098E-01  0.5904E+00  0.5904E+00
      7.200  0.8631E-02  0.8632E-02  0.5910E+00  0.5910E+00
      7.272  0.9230E-02  0.9230E-02  0.5917E+00  0.5917E+00
      7.344  0.1382E-01  0.1382E-01  0.5927E+00  0.5926E+00
      7.416  0.2129E-01  0.2129E-01  0.5942E+00  0.5942E+00
      7.488  0.3042E-01  0.3042E-01  0.5964E+00  0.5964E+00
      7.561  0.3933E-01  0.3933E-01  0.5992E+00  0.5992E+00
      7.633  0.4383E-01  0.4382E-01  0.6024E+00  0.6024E+00
      7.705  0.4059E-01  0.4059E-01  0.6053E+00  0.6053E+00
      7.777  0.3193E-01  0.3194E-01  0.6076E+00  0.6076E+00
      7.850  0.2364E-01  0.2365E-01  0.6093E+00  0.6093E+00
      7.922  0.1859E-01  0.1859E-01  0.6107E+00  0.6107E+00
      7.994  0.1578E-01  0.1578E-01  0.6118E+00  0.6118E+00
      8.066  0.1443E-01  0.1443E-01  0.6129E+00  0.6129E+00
      8.139  0.1507E-01  0.1506E-01  0.6140E+00  0.6140E+00
      8.211  0.1717E-01  0.1716E-01  0.6152E+00  0.6152E+00
      8.283  0.1905E-01  0.1905E-01  0.6166E+00  0.6166E+00
      8.355  0.2007E-01  0.2007E-01  0.6180E+00  0.6180E+00
      8.428  0.2104E-01  0.2104E-01  0.6195E+00  0.6195E+00
      8.500  0.2258E-01  0.2258E-01  0.6212E+00  0.6212E+00
      8.572  0.2388E-01  0.2388E-01  0.6229E+00  0.6229E+00
      8.644  0.2379E-01  0.2379E-01  0.6246E+00  0.6246E+00
      8.717  0.2298E-01  0.2298E-01  0.6263E+00  0.6263E+00
      8.789  0.2335E-01  0.2335E-01  0.6280E+00  0.6280E+00
      8.861  0.2480E-01  0.2480E-01  0.6298E+00  0.6298E+00
      8.933  0.2537E-01  0.2537E-01  0.6316E+00  0.6316E+00
      9.005  0.2444E-01  0.2444E-01  0.6333E+00  0.6333E+00
      9.078  0.2313E-01  0.2313E-01  0.6350E+00  0.6350E+00
      9.150  0.2182E-01  0.2182E-01  0.6366E+00  0.6366E+00
      9.222  0.1944E-01  0.1944E-01  0.6380E+00  0.6380E+00
      9.294  0.1509E-01  0.1509E-01  0.6391E+00  0.6391E+00
      9.367  0.9365E-02  0.9366E-02  0.6398E+00  0.6398E+00
      9.439  0.4047E-02  0.4048E-02  0.6401E+00  0.6401E+00
      9.511  0.6837E-03  0.6842E-03  0.6401E+00  0.6401E+00
      9.583 -0.5482E-03 -0.5481E-03  0.6401E+00  0.6401E+00
      9.656 -0.5616E-03 -0.5617E-03  0.6400E+00  0.6400E+00
      9.728 -0.2799E-03 -0.2800E-03  0.6400E+00  0.6400E+00
      9.800 -0.9317E-04 -0.9321E-04  0.6400E+00  0.6400E+00
      9.872 -0.2231E-04 -0.2232E-04  0.6400E+00  0.6400E+00
      9.945 -0.3953E-05 -0.3956E-05  0.6400E+00  0.6400E+00
     10.017 -0.5261E-06 -0.5264E-06  0.6400E+00  0.6400E+00
     10.089 -0.5297E-07 -0.5301E-07  0.6400E+00  0.6400E+00
     10.161 -0.4055E-08 -0.4058E-08  0.6400E+00  0.6400E+00
     10.234 -0.2368E-09 -0.2370E-09  0.6400E+00  0.6400E+00
     10.306 -0.1057E-10 -0.1058E-10  0.6400E+00  0.6400E+00
     10.378 -0.3612E-12 -0.3616E-12  0.6400E+00  0.6400E+00
     10.450 -0.9460E-14 -0.9470E-14  0.6400E+00  0.6400E+00
     10.523 -0.1913E-15 -0.1921E-15  0.6400E+00  0.6400E+00
     10.595 -0.2561E-17 -0.2561E-17  0.6400E+00  0.6400E+00
     10.667  0.0000E+00  0.0000E+00  0.6400E+00  0.6400E+00
     10.739  0.0000E+00  0.0000E+00  0.6400E+00  0.6400E+00
     10.811  0.0000E+00  0.0000E+00  0.6400E+00  0.6400E+00
     10.884  0.0000E+00  0.0000E+00  0.6400E+00  0.6400E+00
     10.956  0.0000E+00  0.0000E+00  0.6400E+00  0.6400E+00
     11.028  0.0000E+00  0.0000E+00  0.6400E+00  0.6400E+00
     11.100  0.0000E+00  0.0000E+00  0.6400E+00  0.6400E+00
     11.173  0.0000E+00  0.0000E+00  0.6400E+00  0.6400E+00
     11.245  0.0000E+00  0.0000E+00  0.6400E+00  0.6400E+00
     11.317  0.0000E+00  0.0000E+00  0.6400E+00  0.6400E+00
