       N       E                     dE             d eps       ncg     rms          rms(c)
DAV:   1     0.734802689375E+04    0.73480E+04   -0.28342E+05  8192   0.174E+03
DAV:   2     0.892536642372E+03   -0.64555E+04   -0.61825E+04  8192   0.413E+02
DAV:   3    -0.217149853615E+03   -0.11097E+04   -0.99734E+03  8192   0.213E+02
DAV:   4    -0.296559697004E+03   -0.79410E+02   -0.76442E+02  9152   0.809E+01
DAV:   5    -0.298519610582E+03   -0.19599E+01   -0.19522E+01  9168   0.121E+01    0.777E+01
DAV:   6    -0.243889371998E+03    0.54630E+02   -0.71228E+02  8800   0.122E+02    0.399E+01
DAV:   7    -0.209779954416E+03    0.34109E+02   -0.18106E+02  8936   0.783E+01    0.198E+01
DAV:   8    -0.204420966509E+03    0.53590E+01   -0.45353E+01  9592   0.675E+01    0.186E+01
DAV:   9    -0.199313686613E+03    0.51073E+01   -0.13044E+01 11152   0.332E+01    0.147E+01
DAV:  10    -0.198338852545E+03    0.97483E+00   -0.12597E+01 12272   0.342E+01    0.129E+01
DAV:  11    -0.199971630397E+03   -0.16328E+01   -0.13050E+01  9720   0.364E+01    0.107E+01
DAV:  12    -0.210702890495E+03   -0.10731E+02   -0.83650E+00 10104   0.138E+01    0.501E+00
DAV:  13    -0.223304428957E+03   -0.12602E+02   -0.65056E+00 10408   0.199E+01    0.392E+00
DAV:  14    -0.229308779617E+03   -0.60044E+01   -0.35319E+00 12568   0.188E+01    0.296E+00
DAV:  15    -0.239329959559E+03   -0.10021E+02   -0.80092E+00 11208   0.103E+01    0.209E+00
DAV:  16    -0.245026296407E+03   -0.56963E+01   -0.54254E+00  8944   0.728E+00    0.172E+00
DAV:  17    -0.246884176620E+03   -0.18579E+01   -0.12065E+00  9232   0.424E+00    0.135E+00
DAV:  18    -0.248191477414E+03   -0.13073E+01   -0.12171E+00 11416   0.402E+00    0.982E-01
DAV:  19    -0.248962139771E+03   -0.77066E+00   -0.28425E-01  9576   0.267E+00    0.864E-01
DAV:  20    -0.250041094650E+03   -0.10790E+01   -0.30835E-01 10080   0.228E+00    0.728E-01
DAV:  21    -0.250372079062E+03   -0.33098E+00   -0.47170E-02 10592   0.125E+00    0.587E-01
DAV:  22    -0.250873234194E+03   -0.50116E+00   -0.60898E-02  9808   0.178E+00    0.413E-01
DAV:  23    -0.251274151668E+03   -0.40092E+00   -0.32727E-02 10008   0.811E-01    0.326E-01
DAV:  24    -0.251758597015E+03   -0.48445E+00   -0.27351E-02  9936   0.730E-01    0.316E-01
DAV:  25    -0.252050473820E+03   -0.29188E+00   -0.80859E-03 10208   0.571E-01    0.161E-01
DAV:  26    -0.252135245394E+03   -0.84772E-01   -0.59376E-03  9648   0.531E-01    0.133E-01
DAV:  27    -0.252170164625E+03   -0.34919E-01   -0.29617E-03  9808   0.273E-01    0.790E-02
DAV:  28    -0.252194199383E+03   -0.24035E-01   -0.12487E-03  8384   0.226E-01    0.508E-02
DAV:  29    -0.252199197147E+03   -0.49978E-02   -0.51158E-04  6384   0.121E-01    0.268E-02
DAV:  30    -0.252199960874E+03   -0.76373E-03   -0.17604E-04  5512   0.697E-02    0.161E-02
DAV:  31    -0.252200102021E+03   -0.14115E-03   -0.60244E-05  5232   0.553E-02
   1 F= -.27889050E+03 E0= -.27887593E+03  d E =-.278891E+03  mag=     0.0045
       N       E                     dE             d eps       ncg     rms          rms(c)
DAV:   1    -0.252238118751E+03   -0.38158E-01   -0.41101E+01  9048   0.889E+00    0.667E-01
DAV:   2    -0.252317179165E+03   -0.79060E-01   -0.84939E-01 12424   0.455E+00    0.883E-01
DAV:   3    -0.252308414123E+03    0.87650E-02   -0.57716E-02  9032   0.340E+00    0.356E-01
DAV:   4    -0.252307924649E+03    0.48947E-03   -0.13611E-02  9712   0.122E+00    0.338E-01
DAV:   5    -0.252307959103E+03   -0.34455E-04   -0.84227E-03  8728   0.754E-01    0.285E-01
DAV:   6    -0.252307045323E+03    0.91378E-03   -0.40960E-03  9248   0.423E-01    0.149E-01
DAV:   7    -0.252306950757E+03    0.94567E-04   -0.30071E-03 11600   0.605E-01    0.889E-02
DAV:   8    -0.252306845813E+03    0.10494E-03   -0.42373E-04  5560   0.426E-01
   2 F= -.27902004E+03 E0= -.27900524E+03  d E =-.129543E+00  mag=     0.0025
       N       E                     dE             d eps       ncg     rms          rms(c)
DAV:   1    -0.251726179118E+03    0.58077E+00   -0.34486E+02  9192   0.269E+01    0.198E+00
DAV:   2    -0.252502535708E+03   -0.77636E+00   -0.82003E+00 12816   0.138E+01    0.255E+00
DAV:   3    -0.252418016300E+03    0.84519E-01   -0.44469E-01  9152   0.100E+01    0.100E+00
DAV:   4    -0.252416220136E+03    0.17962E-02   -0.12079E-01  9768   0.335E+00    0.963E-01
DAV:   5    -0.252417484942E+03   -0.12648E-02   -0.77192E-02  8608   0.225E+00    0.825E-01
DAV:   6    -0.252410077425E+03    0.74075E-02   -0.29679E-02  9984   0.110E+00    0.487E-01
DAV:   7    -0.252407867104E+03    0.22103E-02   -0.26086E-02 13248   0.147E+00    0.227E-01
DAV:   8    -0.252406733310E+03    0.11338E-02   -0.41395E-03  9000   0.126E+00    0.124E-01
DAV:   9    -0.252406673290E+03    0.60020E-04   -0.22193E-03  9016   0.348E-01    0.812E-02
DAV:  10    -0.252406665989E+03    0.73010E-05   -0.87476E-04  7592   0.147E-01
   3 F= -.27918726E+03 E0= -.27917137E+03  d E =-.296756E+00  mag=     0.0012
       N       E                     dE             d eps       ncg     rms          rms(c)
DAV:   1    -0.252376788033E+03    0.29885E-01   -0.15194E+01  9040   0.555E+00    0.267E-01
DAV:   2    -0.252403429348E+03   -0.26641E-01   -0.27235E-01 12024   0.202E+00    0.377E-01
DAV:   3    -0.252402891074E+03    0.53827E-03   -0.17820E-02  8800   0.151E+00    0.222E-01
DAV:   4    -0.252402861872E+03    0.29202E-04   -0.46287E-03  8944   0.627E-01    0.202E-01
DAV:   5    -0.252402734250E+03    0.12762E-03   -0.17654E-03  8528   0.595E-01
   4 F= -.27921469E+03 E0= -.27919861E+03  d E =-.274291E-01  mag=     0.0008
       N       E                     dE             d eps       ncg     rms          rms(c)
DAV:   1    -0.252358700762E+03    0.44161E-01   -0.16936E+01  9040   0.591E+00    0.296E-01
DAV:   2    -0.252389059332E+03   -0.30359E-01   -0.31108E-01 12000   0.200E+00    0.366E-01
DAV:   3    -0.252388841179E+03    0.21815E-03   -0.18884E-02  8648   0.175E+00    0.235E-01
DAV:   4    -0.252388503106E+03    0.33807E-03   -0.40085E-03  9112   0.718E-01    0.191E-01
DAV:   5    -0.252388395382E+03    0.10772E-03   -0.24180E-03 10048   0.682E-01    0.168E-01
DAV:   6    -0.252388063205E+03    0.33218E-03   -0.29569E-03 12008   0.507E-01    0.437E-02
DAV:   7    -0.252388052071E+03    0.11135E-04   -0.36261E-04  5880   0.163E-01
   5 F= -.27923318E+03 E0= -.27921683E+03  d E =-.459229E-01  mag=     0.0004
       N       E                     dE             d eps       ncg     rms          rms(c)
DAV:   1    -0.252212189253E+03    0.17587E+00   -0.67820E+01  9016   0.118E+01    0.622E-01
DAV:   2    -0.252339669203E+03   -0.12748E+00   -0.13047E+00 12168   0.481E+00    0.880E-01
DAV:   3    -0.252333535829E+03    0.61334E-02   -0.72533E-02  8936   0.358E+00    0.479E-01
DAV:   4    -0.252333165201E+03    0.37063E-03   -0.21971E-02  9224   0.146E+00    0.448E-01
DAV:   5    -0.252332439090E+03    0.72611E-03   -0.10909E-02  8744   0.121E+00    0.401E-01
DAV:   6    -0.252330129899E+03    0.23092E-02   -0.15782E-02 11320   0.866E-01    0.155E-01
DAV:   7    -0.252330111078E+03    0.18821E-04   -0.29736E-03  9456   0.592E-01    0.114E-01
DAV:   8    -0.252329930171E+03    0.18091E-03   -0.11152E-03  8176   0.430E-01
   6 F= -.27924168E+03 E0= -.27922476E+03  d E =-.544197E-01  mag=     0.0002
       N       E                     dE             d eps       ncg     rms          rms(c)
DAV:   1    -0.252294919271E+03    0.35192E-01   -0.13065E+01  8984   0.511E+00    0.245E-01
DAV:   2    -0.252317482510E+03   -0.22563E-01   -0.22701E-01 12224   0.194E+00    0.351E-01
DAV:   3    -0.252316782842E+03    0.69967E-03   -0.15734E-02  8816   0.154E+00    0.208E-01
DAV:   4    -0.252316771063E+03    0.11779E-04   -0.45943E-03  8624   0.612E-01    0.185E-01
DAV:   5    -0.252316683682E+03    0.87381E-04   -0.18852E-03  8392   0.488E-01
   7 F= -.27925866E+03 E0= -.27924137E+03  d E =-.169840E-01  mag=     0.0002
       N       E                     dE             d eps       ncg     rms          rms(c)
DAV:   1    -0.252054327398E+03    0.26244E+00   -0.11840E+02  8984   0.156E+01    0.859E-01
DAV:   2    -0.252283397198E+03   -0.22907E+00   -0.23153E+00 12472   0.712E+00    0.123E+00
DAV:   3    -0.252265897345E+03    0.17500E-01   -0.11492E-01  9632   0.530E+00    0.642E-01
DAV:   4    -0.252264908602E+03    0.98874E-03   -0.39085E-02  9016   0.199E+00    0.608E-01
DAV:   5    -0.252264026795E+03    0.88181E-03   -0.25248E-02  8664   0.152E+00    0.539E-01
DAV:   6    -0.252259713661E+03    0.43131E-02   -0.29476E-02 10864   0.129E+00    0.242E-01
DAV:   7    -0.252259621211E+03    0.92450E-04   -0.77214E-03  9944   0.798E-01    0.154E-01
DAV:   8    -0.252259309335E+03    0.31188E-03   -0.22161E-03  8344   0.637E-01    0.509E-02
DAV:   9    -0.252259337878E+03   -0.28543E-04   -0.73719E-04  6992   0.182E-01
   8 F= -.27929247E+03 E0= -.27927405E+03  d E =-.507927E-01  mag=     0.0001
       N       E                     dE             d eps       ncg     rms          rms(c)
DAV:   1    -0.251188450914E+03    0.10709E+01   -0.48481E+02  9120   0.328E+01    0.188E+00
DAV:   2    -0.252225885393E+03   -0.10374E+01   -0.10321E+01 13096   0.178E+01    0.295E+00
DAV:   3    -0.252103790058E+03    0.12210E+00   -0.58642E-01 11880   0.123E+01    0.141E+00
DAV:   4    -0.252098017765E+03    0.57723E-02   -0.14674E-01  9512   0.374E+00    0.132E+00
DAV:   5    -0.252095565983E+03    0.24518E-02   -0.11721E-01  8800   0.272E+00    0.116E+00
DAV:   6    -0.252072827358E+03    0.22739E-01   -0.69749E-02 11152   0.230E+00    0.468E-01
DAV:   7    -0.252071499440E+03    0.13279E-02   -0.42515E-02 13520   0.169E+00    0.236E-01
DAV:   8    -0.252070624940E+03    0.87450E-03   -0.59549E-03  9288   0.121E+00    0.137E-01
DAV:   9    -0.252070704691E+03   -0.79752E-04   -0.29182E-03  8984   0.366E-01    0.786E-02
DAV:  10    -0.252070716602E+03   -0.11911E-04   -0.70615E-04  7104   0.163E-01
   9 F= -.27928844E+03 E0= -.27926850E+03  d E =-.467653E-01  mag=     0.0000
       N       E                     dE             d eps       ncg     rms          rms(c)
DAV:   1    -0.251912205047E+03    0.15850E+00   -0.15584E+02  8992   0.180E+01    0.816E-01
DAV:   2    -0.252211403444E+03   -0.29920E+00   -0.30865E+00 11704   0.457E+00    0.106E+00
DAV:   3    -0.252205295036E+03    0.61084E-02   -0.12629E-01  8528   0.278E+00    0.793E-01
DAV:   4    -0.252201578569E+03    0.37165E-02   -0.20214E-02  9208   0.164E+00    0.657E-01
DAV:   5    -0.252197244283E+03    0.43343E-02   -0.10672E-02 13816   0.162E+00    0.556E-01
DAV:   6    -0.252192652520E+03    0.45918E-02   -0.10738E-02 13664   0.236E+00    0.295E-01
DAV:   7    -0.252191302661E+03    0.13499E-02   -0.91631E-03 14096   0.118E+00    0.176E-01
DAV:   8    -0.252191074844E+03    0.22782E-03   -0.26615E-03 10296   0.505E-01    0.103E-01
DAV:   9    -0.252190963556E+03    0.11129E-03   -0.14130E-03  8320   0.199E-01
  10 F= -.27930246E+03 E0= -.27928325E+03  d E =-.607798E-01  mag=     0.0000
       N       E                     dE             d eps       ncg     rms          rms(c)
DAV:   1    -0.252135329778E+03    0.55745E-01   -0.43020E+01  8848   0.936E+00    0.434E-01
DAV:   2    -0.252215007210E+03   -0.79677E-01   -0.81923E-01 12048   0.295E+00    0.616E-01
DAV:   3    -0.252212631634E+03    0.23756E-02   -0.31725E-02  8672   0.208E+00    0.403E-01
DAV:   4    -0.252211943831E+03    0.68780E-03   -0.69249E-03  8768   0.103E+00    0.373E-01
DAV:   5    -0.252210517400E+03    0.14264E-02   -0.41639E-03 11152   0.839E-01    0.302E-01
DAV:   6    -0.252208772984E+03    0.17444E-02   -0.79923E-03 14632   0.764E-01    0.746E-02
DAV:   7    -0.252208788544E+03   -0.15559E-04   -0.12914E-03  8496   0.319E-01
  11 F= -.27934385E+03 E0= -.27932395E+03  d E =-.413930E-01  mag=     0.0000
       N       E                     dE             d eps       ncg     rms          rms(c)
DAV:   1    -0.252175083907E+03    0.33689E-01   -0.18498E+01  8824   0.612E+00    0.282E-01
DAV:   2    -0.252208781011E+03   -0.33697E-01   -0.34498E-01 11880   0.191E+00    0.385E-01
DAV:   3    -0.252208060187E+03    0.72082E-03   -0.14707E-02  8640   0.141E+00    0.253E-01
DAV:   4    -0.252207765189E+03    0.29500E-03   -0.30741E-03  8608   0.723E-01    0.231E-01
DAV:   5    -0.252207230055E+03    0.53513E-03   -0.17225E-03  9560   0.559E-01    0.188E-01
DAV:   6    -0.252206658115E+03    0.57194E-03   -0.33214E-03 13776   0.473E-01    0.553E-02
DAV:   7    -0.252206648139E+03    0.99759E-05   -0.52432E-04  6128   0.201E-01
  12 F= -.27935726E+03 E0= -.27933693E+03  d E =-.548078E-01  mag=     0.0000
       N       E                     dE             d eps       ncg     rms          rms(c)
DAV:   1    -0.252039219317E+03    0.16744E+00   -0.74293E+01  8816   0.124E+01    0.595E-01
DAV:   2    -0.252181540801E+03   -0.14232E+00   -0.14556E+00 12160   0.422E+00    0.853E-01
DAV:   3    -0.252176096861E+03    0.54439E-02   -0.57980E-02  8656   0.304E+00    0.522E-01
DAV:   4    -0.252175097748E+03    0.99911E-03   -0.14650E-02  8768   0.145E+00    0.485E-01
DAV:   5    -0.252173051676E+03    0.20461E-02   -0.80478E-03  9552   0.104E+00    0.403E-01
DAV:   6    -0.252169916101E+03    0.31356E-02   -0.16031E-02 14320   0.907E-01    0.813E-02
DAV:   7    -0.252169992345E+03   -0.76245E-04   -0.19645E-03  8960   0.340E-01
  13 F= -.27935195E+03 E0= -.27933074E+03  d E =-.494980E-01  mag=     0.0000
       N       E                     dE             d eps       ncg     rms          rms(c)
DAV:   1    -0.252146128458E+03    0.23788E-01   -0.31334E+01  8800   0.800E+00    0.371E-01
DAV:   2    -0.252203335506E+03   -0.57207E-01   -0.59062E-01 11872   0.242E+00    0.541E-01
DAV:   3    -0.252201548961E+03    0.17865E-02   -0.24616E-02  8464   0.156E+00    0.353E-01
DAV:   4    -0.252201025391E+03    0.52357E-03   -0.47929E-03  8800   0.696E-01    0.322E-01
DAV:   5    -0.252200083528E+03    0.94186E-03   -0.18799E-03 10112   0.778E-01    0.271E-01
DAV:   6    -0.252198644383E+03    0.14391E-02   -0.39811E-03 14592   0.987E-01    0.903E-02
DAV:   7    -0.252198474409E+03    0.16997E-03   -0.13115E-03  9264   0.530E-01
  14 F= -.27935999E+03 E0= -.27933936E+03  d E =-.575380E-01  mag=     0.0000
       N       E                     dE             d eps       ncg     rms          rms(c)
DAV:   1    -0.252159466479E+03    0.39178E-01   -0.35947E+01  8816   0.863E+00    0.391E-01
DAV:   2    -0.252224390834E+03   -0.64924E-01   -0.67507E-01 11888   0.230E+00    0.509E-01
DAV:   3    -0.252222674816E+03    0.17160E-02   -0.18341E-02  8568   0.135E+00    0.365E-01
DAV:   4    -0.252221976942E+03    0.69787E-03   -0.36775E-03  8464   0.872E-01    0.333E-01
DAV:   5    -0.252220715698E+03    0.12612E-02   -0.21609E-03 11760   0.847E-01    0.262E-01
DAV:   6    -0.252219280984E+03    0.14347E-02   -0.44760E-03 14864   0.897E-01    0.937E-02
DAV:   7    -0.252219196913E+03    0.84071E-04   -0.11755E-03  8512   0.429E-01
  15 F= -.27938302E+03 E0= -.27936258E+03  d E =-.230213E-01  mag=     0.0000
       N       E                     dE             d eps       ncg     rms          rms(c)
DAV:   1    -0.252207435412E+03    0.11846E-01   -0.83629E+00  8816   0.416E+00    0.181E-01
DAV:   2    -0.252222524207E+03   -0.15089E-01   -0.15479E-01 11696   0.105E+00    0.200E-01
DAV:   3    -0.252222318177E+03    0.20603E-03   -0.30168E-03  8928   0.623E-01    0.158E-01
DAV:   4    -0.252222193998E+03    0.12418E-03   -0.69937E-04  6992   0.549E-01
  16 F= -.27938709E+03 E0= -.27936675E+03  d E =-.270989E-01  mag=     0.0000
       N       E                     dE             d eps       ncg     rms          rms(c)
DAV:   1    -0.252221875479E+03    0.44270E-03   -0.48922E-02 11720   0.528E-01    0.106E-01
DAV:   2    -0.252221892338E+03   -0.16858E-04   -0.13160E-03  8496   0.679E-01
  17 F= -.27938687E+03 E0= -.27936650E+03  d E =-.268761E-01  mag=     0.0000
       N       E                     dE             d eps       ncg     rms          rms(c)
DAV:   1    -0.252221539020E+03    0.33646E-03   -0.18397E-01 11712   0.875E-01    0.727E-02
DAV:   2    -0.252222026271E+03   -0.48725E-03   -0.20578E-03  8256   0.921E-01    0.125E-01
DAV:   3    -0.252221572191E+03    0.45408E-03   -0.56835E-04  6016   0.675E-01    0.357E-02
DAV:   4    -0.252221603726E+03   -0.31535E-04   -0.51021E-04  5648   0.200E-01
  18 F= -.27938673E+03 E0= -.27936642E+03  d E =-.267322E-01  mag=     0.0000
       N       E                     dE             d eps       ncg     rms          rms(c)
DAV:   1    -0.252212685958E+03    0.88862E-02   -0.35310E+00  9040   0.269E+00    0.124E-01
DAV:   2    -0.252218922859E+03   -0.62369E-02   -0.64252E-02 11872   0.853E-01    0.167E-01
DAV:   3    -0.252218952496E+03   -0.29636E-04   -0.43871E-03  8400   0.582E-01    0.109E-01
DAV:   4    -0.252218916638E+03    0.35858E-04   -0.70527E-04  6912   0.255E-01
  19 F= -.27938940E+03 E0= -.27936922E+03  d E =-.267615E-02  mag=     0.0000
