 vasp.6.3.2 27Jun22 (build Aug 17 2022 15:43:34) complex                        
  
 executed on           tv2STDVTST date 2025.01.23  12:35:49
 running   20 mpi-ranks, with    1 threads/rank
 distrk:  each k-point on   20 cores,    1 groups
 distr:  one band on NCORE=   5 cores,    4 groups


--------------------------------------------------------------------------------------------------------


 -----------------------------------------------------------------------------
|                                                                             |
|           W    W    AA    RRRRR   N    N  II  N    N   GGGG   !!!           |
|           W    W   A  A   R    R  NN   N  II  NN   N  G    G  !!!           |
|           W    W  A    A  R    R  N N  N  II  N N  N  G       !!!           |
|           W WW W  AAAAAA  RRRRR   N  N N  II  N  N N  G  GGG   !            |
|           WW  WW  A    A  R   R   N   NN  II  N   NN  G    G                |
|           W    W  A    A  R    R  N    N  II  N    N   GGGG   !!!           |
|                                                                             |
|     Found issues when parsing the INCAR file                                |
|     In line 64: Tagname --- R W I G S contains invalid characters.          |
|     Please check if the interpretation in the OUTCAR file is correct.       |
|                                                                             |
 -----------------------------------------------------------------------------

 INCAR:
    = \=\=\=\=\=\=\=\=\=\=\=\=\=\=\=\=\=\=\=\=\=\=\=\=\=\=\=\=\=\=\=\=\=\=\=\=\=\=\=\=\=\=\=\=\=\=\=\=\=\=\=\=\=\=\=\=\=\=\=\=\=\=\=\=\=\=\=\=\=\=\=\=
    = \=\=\=\=\=\=\=\=\=\=\=\=\=\=\=\=\=\=\=\=\=\=\=\=\=\=\=\=\=\=\=\=\=\=\=\=\=\=\=\=\=\=\=\=\=\=\=\=\=\=\=\=\=\=\=\=\=\=\=\=\=\=\=\=\=\=\=\=\=\=\=\=
   ISTART = 0
   ICHARG = 2
   IPIPOL = 3
   IVDW = 11
   IDIPOL = 3
   IVDW = 11
    = \=\=\=\=\=\=\=\=\=\=\=\=\=\=\=\=\=\=\=\=\=\=\=\=\=\=\=\=\=\=\=\=\=\=\=\=\=\=\=\=\=\=\=\=\=\=\=\=\=\=\=\=\=\=\=\=\=\=\=\=\=\=\=\=\=\=\=\=\=\=\=\=
    = \=\=\=\=\=\=\=\=\=\=\=\=\=\=\=\=\=\=\=\=\=\=\=\=\=\=\=\=\=\=\=\=\=\=\=\=\=\=\=\=\=\=\=\=\=\=\=\=\=\=\=\=\=\=\=\=\=\=\=\=\=\=\=\=\=\=\=\=\=\=\=\=
   ISPIN = 2
    = \=\=\=\=\=\=\=\=\=\=\=\=\=\=\=\=\=\=\=\=\=\=\=\=\=\=\=\=\=\=\=\=\=\=\=\=\=\=\=\=\=\=\=\=\=\=\=\=\=\=\=\=\=\=\=\=\=\=\=\=\=\=\=\=\=\=\=\=\=\=\=\=
    = \=\=\=\=\=\=\=\=\=\=\=\=\=\=\=\=\=\=\=\=\=\=\=\=\=\=\=\=\=\=\=\=\=\=\=\=\=\=\=\=\=\=\=\=\=\=\=\=\=\=\=\=\=\=\=\=\=\=\=\=\=\=\=\=\=\=\=\=\=\=\=\=
   ENCUT = 400
   PREC = Normal
   EDIFF = 2E-04
   GGA = PE
   ISMEAR = 1
   SIGMA = 0.2
   LREAL = .FALSE.
    = \=\=\=\=\=\=\=\=\=\=\=\=\=\=\=\=\=\=\=\=\=\=\=\=\=\=\=\=\=\=\=\=\=\=\=\=\=\=\=\=\=\=\=\=\=\=\=\=\=\=\=\=\=\=\=\=\=\=\=\=\=\=\=\=\=\=\=\=\=\=\=\=
    = \=\=\=\=\=\=\=\=\=\=\=\=\=\=\=\=\=\=\=\=\=\=\=\=\=\=\=\=\=\=\=\=\=\=\=\=\=\=\=\=\=\=\=\=\=\=\=\=\=\=\=\=\=\=\=\=\=\=\=\=\=\=\=\=\=\=\=\=\=\=\=\=
   ISYM = 1
   NSW = 800
   IBRION = 2
   POTIM = 0.5
   ISIF = 2
   EDIFFG = -.03
    = \=\=\=\=\=\=\=\=\=\=\=\=\=\=\=\=\=\=\=\=\=\=\=\=\=\=\=\=\=\=\=\=\=\=\=\=\=\=\=\=\=\=\=\=\=\=\=\=\=\=\=\=\=\=\=\=\=\=\=\=\=\=\=\=\=\=\=\=\=\=\=\=
    = \=\=\=\=\=\=\=\=\=\=\=\=\=\=\=\=\=\=\=\=\=\=\=\=\=\=\=\=\=\=\=\=\=\=\=\=\=\=\=\=\=\=\=\=\=\=\=\=\=\=\=\=\=\=\=\=\=\=\=\=\=\=\=\=\=\=\=\=\=\=\=\=
   NPAR = 4
   LWAVE = .FALSE.
   LCHARG = .FALSE.

 POTCAR:    PAW_PBE Cu 22Jun2005                  
 -----------------------------------------------------------------------------
|                                                                             |
|           W    W    AA    RRRRR   N    N  II  N    N   GGGG   !!!           |
|           W    W   A  A   R    R  NN   N  II  NN   N  G    G  !!!           |
|           W    W  A    A  R    R  N N  N  II  N N  N  G       !!!           |
|           W WW W  AAAAAA  RRRRR   N  N N  II  N  N N  G  GGG   !            |
|           WW  WW  A    A  R   R   N   NN  II  N   NN  G    G                |
|           W    W  A    A  R    R  N    N  II  N    N   GGGG   !!!           |
|                                                                             |
|     You use a magnetic or noncollinear calculation, but did not specify     |
|     the initial magnetic moment with the MAGMOM tag. Note that a            |
|     default of 1 will be used for all atoms. This ferromagnetic setup       |
|     may break the symmetry of the crystal, in particular it may rule        |
|     out finding an antiferromagnetic solution. Thence, we recommend         |
|     setting the initial magnetic moment manually or verifying carefully     |
|     that this magnetic setup is desired.                                    |
|                                                                             |
 -----------------------------------------------------------------------------

 POTCAR:    PAW_PBE Cu 22Jun2005                  
   SHA256 =  0e71e558f37a4e8407882b4609ceaae59938afaad9ced71dfe8490308a0ab630 Cu/POTCAR             
   COPYR  = (c) Copyright 22Jun2005 Georg Kresse                                                    
   COPYR  = This file is part of the software VASP. Any use, copying, and all other rights are regul
   COPYR  = If you do not have a valid VASP license, you may not use, copy or distribute this file. 
   VRHFIN =Cu: d10 p1                                                                               
   LEXCH  = PE                                                                                      
   EATOM  =  1390.9808 eV,  102.2342 Ry                                                             
                                                                                                    
   TITEL  = PAW_PBE Cu 22Jun2005                                                                    
   LULTRA =        F    use ultrasoft PP ?                                                          
   IUNSCR =        1    unscreen: 0-lin 1-nonlin 2-no                                               
   RPACOR =    2.000    partial core radius                                                         
   POMASS =   63.546; ZVAL   =   11.000    mass and valenz                                          
   RCORE  =    2.300    outmost cutoff radius                                                       
   RWIGS  =    2.200; RWIGS  =    1.164    wigner-seitz radius (au A)                               
   ENMAX  =  295.446; ENMIN  =  221.585 eV                                                          
   ICORE  =        3    local potential                                                             
   LCOR   =        T    correct aug charges                                                         
   LPAW   =        T    paw PP                                                                      
   EAUG   =  586.980                                                                                
   DEXC   =    0.000                                                                                
   RMAX   =    2.344    core radius for proj-oper                                                   
   RAUG   =    1.300    factor for augmentation sphere                                              
   RDEP   =    2.302    radius for radial grids                                                     
   RDEPT  =    1.771    core radius for aug-charge                                                  
                                                                                                    
   Atomic configuration                                                                             
    9 entries                                                                                       
     n  l   j            E        occ.                                                              
     1  0  0.50     -8850.2468   2.0000                                                             
     2  0  0.50     -1062.3498   2.0000                                                             
     2  1  1.50      -916.8226   6.0000                                                             
     3  0  0.50      -114.6929   2.0000                                                             
     3  1  1.50       -72.1325   6.0000                                                             
     3  2  2.50        -5.0394  10.0000                                                             
     4  0  0.50        -4.6097   1.0000                                                             
     4  1  0.50        -4.0817   0.0000                                                             
     4  3  2.50        -1.3606   0.0000                                                             
   Description                                                                                      
     l       E           TYP  RCUT    TYP  RCUT                                                     
     2     -5.0393973     23  2.200                                                                 
     2     10.8846608     23  2.200                                                                 
     0     -4.6097109     23  2.200                                                                 
     0      8.2520465     23  2.200                                                                 
     1     -2.7211652     23  2.200                                                                 
     1     21.7055443     23  2.200                                                                 
     3      2.7211652     23  2.300                                                                 
  local pseudopotential read in
  partial core-charges read in
  partial kinetic energy density read in
  atomic valenz-charges read in
  non local Contribution for L=           2  read in
    real space projection operators read in
  non local Contribution for L=           2  read in
    real space projection operators read in
  non local Contribution for L=           0  read in
    real space projection operators read in
  non local Contribution for L=           0  read in
    real space projection operators read in
  non local Contribution for L=           1  read in
    real space projection operators read in
  non local Contribution for L=           1  read in
    real space projection operators read in
    PAW grid and wavefunctions read in
 
   number of l-projection  operators is LMAX  =           6
   number of lm-projection operators is LMMAX =          18
 
 -----------------------------------------------------------------------------
|                                                                             |
|               ----> ADVICE to this user running VASP <----                  |
|                                                                             |
|     You have a (more or less) 'large supercell' and for larger cells it     |
|     might be more efficient to use real-space projection operators.         |
|     Therefore, try LREAL= Auto in the INCAR file.                           |
|     Mind: For very accurate calculation, you might also keep the            |
|     reciprocal projection scheme (i.e. LREAL=.FALSE.).                      |
|                                                                             |
 -----------------------------------------------------------------------------

  PAW_PBE Cu 22Jun2005                  :
 energy of atom  1       EATOM=-1390.9808
 kinetic energy error for atom=    0.0232 (will be added to EATOM!!)
 
 
 POSCAR: FCC Cu
  positions in cartesian coordinates
  velocities in cartesian coordinates
  No initial velocities read in
 exchange correlation table for  LEXCH =        8
   RHO(1)=    0.500       N(1)  =     2000
   RHO(2)=  100.500       N(2)  =     4000

 VTST: version 4.2, (08/11/21)

 CHAIN: initializing optimizer
 
 OPT: Using VASP Conjugate-Gradient optimizer
 CHAIN: Read ICHAIN            0
 
 POSCAR: FCC Cu
  positions in cartesian coordinates
  velocities in cartesian coordinates
  No initial velocities read in
 


--------------------------------------------------------------------------------------------------------


 ion  position               nearest neighbor table
   1  0.000  0.000  0.000-  19 2.57  12 2.57  18 2.57  10 2.57  16 2.57   3 2.57   2 2.57
   2  0.000  0.333  0.000-  20 2.57  10 2.57  16 2.57  11 2.57  17 2.57   1 2.57   3 2.57
   3  0.000  0.667  0.000-  21 2.57  12 2.57  11 2.57  18 2.57  17 2.57   1 2.57   2 2.57
   4  0.333  0.000  0.000-  22 2.57  12 2.57  15 2.57  10 2.57  13 2.57   6 2.57   5 2.57
   5  0.333  0.333  0.000-  23 2.57  10 2.57  13 2.57  11 2.57  14 2.57   4 2.57   6 2.57
   6  0.333  0.667  0.000-  24 2.57  12 2.57  11 2.57  15 2.57  14 2.57   4 2.57   5 2.57
   7  0.667  0.000  0.000-  25 2.57  18 2.57  16 2.57  15 2.57  13 2.57   9 2.57   8 2.57
   8  0.667  0.333  0.000-  26 2.57  16 2.57  17 2.57  13 2.57  14 2.57   7 2.57   9 2.57
   9  0.667  0.667  0.000-  27 2.57  18 2.57  17 2.57  15 2.57  14 2.57   7 2.57   8 2.57
  10  0.167  0.167  0.054-  28 2.57  23 2.57  20 2.57  19 2.57  22 2.57   5 2.57   2 2.57   1 2.57
                             4 2.57  12 2.57  11 2.57
  11  0.167  0.500  0.054-  29 2.57  21 2.57  23 2.57  24 2.57  20 2.57   3 2.57   5 2.57   6 2.57
                             2 2.57  10 2.57  12 2.57
  12  0.167  0.833  0.054-  30 2.57  22 2.57  19 2.57  24 2.57  21 2.57   4 2.57   1 2.57   6 2.57
                             3 2.57  10 2.57  11 2.57
  13  0.500  0.167  0.054-  31 2.57  23 2.57  22 2.57  26 2.57   5 2.57  25 2.57   4 2.57   8 2.57
                             7 2.57  15 2.57  14 2.57
  14  0.500  0.500  0.054-  32 2.57  24 2.57  23 2.57  27 2.57  26 2.57   6 2.57   5 2.57   9 2.57
                             8 2.57  13 2.57  15 2.57
  15  0.500  0.833  0.054-  33 2.57  22 2.57  24 2.57  25 2.57   4 2.57  27 2.57   6 2.57   7 2.57
                             9 2.57  13 2.57  14 2.57
  16  0.833  0.167  0.054-  34 2.57  26 2.57  20 2.57  25 2.57  19 2.57   8 2.57   2 2.57   7 2.57
                             1 2.57  18 2.57  17 2.57
  17  0.833  0.500  0.054-  35 2.57  27 2.57  26 2.57  21 2.57  20 2.57   9 2.57   8 2.57   3 2.57
                             2 2.57  16 2.57  18 2.57
  18  0.833  0.833  0.054-  36 2.57  25 2.57  19 2.57  27 2.57  21 2.57   7 2.57   1 2.57   9 2.57
                             3 2.57  16 2.57  17 2.57
  19  0.000  0.000  0.107-   1 2.57  37 2.57  12 2.57  18 2.57  10 2.57  16 2.57  30 2.57  36 2.57
                            28 2.57  34 2.57  21 2.57  20 2.57
  20  0.000  0.333  0.107-   2 2.57  38 2.57  10 2.57  16 2.57  11 2.57  17 2.57  28 2.57  34 2.57
                            29 2.57  35 2.57  19 2.57  21 2.57
  21  0.000  0.667  0.107-   3 2.57  39 2.57  12 2.57  11 2.57  18 2.57  17 2.57  30 2.57  29 2.57
                            36 2.57  35 2.57  19 2.57  20 2.57
  22  0.333  0.000  0.107-   4 2.57  40 2.57  12 2.57  15 2.57  10 2.57  13 2.57  30 2.57  33 2.57
                            28 2.57  31 2.57  24 2.57  23 2.57
  23  0.333  0.333  0.107-   5 2.57  41 2.57  10 2.57  13 2.57  11 2.57  14 2.57  28 2.57  31 2.57
                            29 2.57  32 2.57  22 2.57  24 2.57
  24  0.333  0.667  0.107-   6 2.57  42 2.57  12 2.57  11 2.57  15 2.57  14 2.57  30 2.57  29 2.57
                            33 2.57  32 2.57  22 2.57  23 2.57
  25  0.667  0.000  0.107-   7 2.57  43 2.57  18 2.57  16 2.57  15 2.57  36 2.57  13 2.57  34 2.57
                            33 2.57  31 2.57  27 2.57  26 2.57
  26  0.667  0.333  0.107-   8 2.57  44 2.57  16 2.57  17 2.57  13 2.57  34 2.57  14 2.57  35 2.57
                            31 2.57  32 2.57  25 2.57  27 2.57
  27  0.667  0.667  0.107-   9 2.57  45 2.57  18 2.57  17 2.57  15 2.57  14 2.57  36 2.57  35 2.57
                            33 2.57  32 2.57  25 2.57  26 2.57
  28  0.167  0.167  0.161-  10 2.57  46 2.57  41 2.57  38 2.57  37 2.57  40 2.57  23 2.57  20 2.57
                            19 2.57  22 2.57  30 2.57  29 2.57
  29  0.167  0.500  0.161-  11 2.57  47 2.57  39 2.57  41 2.57  42 2.57  38 2.57  21 2.57  23 2.57
                            24 2.57  20 2.57  28 2.57  30 2.57
  30  0.167  0.833  0.161-  12 2.57  48 2.57  40 2.57  37 2.57  22 2.57  19 2.57  42 2.57  39 2.57
                            24 2.57  21 2.57  28 2.57  29 2.57
  31  0.500  0.167  0.161-  13 2.57  49 2.57  41 2.57  40 2.57  23 2.57  44 2.57  22 2.57  43 2.57
                            26 2.57  25 2.57  33 2.57  32 2.57
  32  0.500  0.500  0.161-  14 2.57  50 2.57  42 2.57  41 2.57  24 2.57  23 2.57  45 2.57  44 2.57
                            27 2.57  26 2.57  31 2.57  33 2.57
  33  0.500  0.833  0.161-  15 2.57  51 2.57  40 2.57  22 2.57  42 2.57  43 2.57  24 2.57  25 2.57
                            45 2.57  27 2.57  31 2.57  32 2.57
  34  0.833  0.167  0.161-  16 2.57  52 2.57  44 2.57  38 2.57  43 2.57  26 2.57  37 2.57  20 2.57
                            25 2.57  19 2.57  36 2.57  35 2.57
  35  0.833  0.500  0.161-  17 2.57  53 2.57  45 2.57  44 2.57  39 2.57  38 2.57  27 2.57  26 2.57
                            21 2.57  20 2.57  34 2.57  36 2.57
  36  0.833  0.833  0.161-  18 2.57  54 2.57  43 2.57  37 2.57  25 2.57  45 2.57  19 2.57  39 2.57
                            27 2.57  21 2.57  34 2.57  35 2.57
  37  0.000  0.000  0.214-  55 2.57  19 2.57  48 2.57  30 2.57  54 2.57  36 2.57  46 2.57  28 2.57
                            34 2.57  52 2.57  39 2.57  38 2.57
  38  0.000  0.333  0.214-  56 2.57  20 2.57  46 2.57  28 2.57  52 2.57  34 2.57  29 2.57  47 2.57
                            53 2.57  35 2.57  37 2.57  39 2.57
  39  0.000  0.667  0.214-  57 2.57  21 2.57  30 2.57  47 2.57  48 2.57  29 2.57  36 2.57  53 2.57
                            54 2.57  35 2.57  37 2.57  38 2.57
  40  0.333  0.000  0.214-  58 2.57  22 2.57  48 2.57  30 2.57  51 2.57  33 2.57  46 2.57  28 2.57
                            31 2.57  49 2.57  42 2.57  41 2.57
  41  0.333  0.333  0.214-  59 2.57  23 2.57  46 2.57  28 2.57  49 2.57  31 2.57  29 2.57  47 2.57
                            50 2.57  32 2.57  40 2.57  42 2.57
  42  0.333  0.667  0.214-  60 2.57  24 2.57  30 2.57  47 2.57  48 2.57  29 2.57  33 2.57  50 2.57
                            51 2.57  32 2.57  40 2.57  41 2.57
  43  0.667  0.000  0.214-  61 2.57  25 2.57  54 2.57  36 2.57  34 2.57  52 2.57  51 2.57  33 2.57
                            31 2.57  49 2.57  45 2.57  44 2.57
  44  0.667  0.333  0.214-  62 2.57  26 2.57  52 2.57  34 2.57  53 2.57  35 2.57  49 2.57  31 2.57
                            50 2.57  32 2.57  43 2.57  45 2.57
  45  0.667  0.667  0.214-  63 2.57  27 2.57  36 2.57  53 2.57  54 2.57  35 2.57  51 2.57  32 2.57
                            33 2.57  50 2.57  43 2.57  44 2.57
  46  0.167  0.167  0.268-  28 2.57  64 2.57  59 2.57  56 2.57  41 2.57  38 2.57  55 2.57  58 2.57
                            37 2.57  40 2.57  48 2.57  47 2.57
  47  0.167  0.500  0.268-  29 2.57  65 2.57  57 2.57  59 2.57  60 2.57  56 2.57  39 2.57  41 2.57
                            42 2.57  38 2.57  46 2.57  48 2.57
  48  0.167  0.833  0.268-  30 2.57  66 2.57  58 2.57  55 2.57  40 2.57  37 2.57  60 2.57  57 2.57
                            42 2.57  39 2.57  46 2.57  47 2.57
  49  0.500  0.167  0.268-  31 2.57  67 2.57  59 2.57  41 2.57  58 2.57  40 2.57  62 2.57  44 2.57
                            61 2.57  43 2.57  51 2.57  50 2.57
  50  0.500  0.500  0.268-  32 2.57  68 2.57  60 2.57  59 2.57  42 2.57  41 2.57  63 2.57  62 2.57
                            45 2.57  44 2.57  49 2.57  51 2.57
  51  0.500  0.833  0.268-  33 2.57  69 2.57  58 2.57  40 2.57  60 2.57  42 2.57  61 2.57  43 2.57
                            63 2.57  45 2.57  49 2.57  50 2.57
  52  0.833  0.167  0.268-  34 2.57  70 2.57  62 2.57  44 2.57  56 2.57  38 2.57  61 2.57  43 2.57
                            55 2.57  37 2.57  54 2.57  53 2.57
  53  0.833  0.500  0.268-  35 2.57  71 2.57  63 2.57  62 2.57  45 2.57  44 2.57  57 2.57  56 2.57
                            39 2.57  38 2.57  52 2.57  54 2.57
  54  0.833  0.833  0.268-  36 2.57  72 2.57  61 2.57  43 2.57  55 2.57  37 2.57  63 2.57  45 2.57
                            57 2.57  39 2.57  52 2.57  53 2.57
  55  0.000  0.000  0.321-  37 2.57  48 2.57  54 2.57  66 2.57  46 2.57  72 2.57  52 2.57  64 2.57
                            70 2.57  57 2.57  56 2.57
  56  0.000  0.333  0.321-  38 2.57  46 2.57  52 2.57  47 2.57  64 2.57  53 2.57  70 2.57  65 2.57
                            71 2.57  55 2.57  57 2.57
  57  0.000  0.667  0.321-  39 2.57  47 2.57  48 2.57  53 2.57  54 2.57  65 2.57  66 2.57  71 2.57
                            72 2.57  55 2.57  56 2.57
  58  0.333  0.000  0.321-  40 2.57  48 2.57  51 2.57  66 2.57  69 2.57  46 2.57  49 2.57  64 2.57
                            67 2.57  60 2.57  59 2.57
  59  0.333  0.333  0.321-  41 2.57  46 2.57  49 2.57  47 2.57  50 2.57  64 2.57  67 2.57  65 2.57
                            68 2.57  58 2.57  60 2.57
  60  0.333  0.667  0.321-  42 2.57  47 2.57  48 2.57  50 2.57  51 2.57  65 2.57  66 2.57  68 2.57
                            69 2.57  58 2.57  59 2.57
  61  0.667  0.000  0.321-  43 2.57  54 2.57  72 2.57  52 2.57  51 2.57  70 2.57  69 2.57  49 2.57
                            67 2.57  63 2.57  62 2.57
  62  0.667  0.333  0.321-  44 2.57  52 2.57  53 2.57  70 2.57  49 2.57  71 2.57  50 2.57  67 2.57
                            68 2.57  61 2.57  63 2.57
  63  0.667  0.667  0.321-  45 2.57  53 2.57  54 2.57  71 2.57  72 2.57  50 2.57  51 2.57  68 2.57
                            69 2.57  61 2.57  62 2.57
  64  0.167  0.167  0.375-  46 2.57  56 2.57  59 2.57  58 2.57  55 2.57  66 2.57  65 2.57
  65  0.167  0.500  0.375-  47 2.57  56 2.57  57 2.57  59 2.57  60 2.57  64 2.57  66 2.57
  66  0.167  0.833  0.375-  48 2.57  55 2.57  58 2.57  57 2.57  60 2.57  64 2.57  65 2.57
  67  0.500  0.167  0.375-  49 2.57  59 2.57  58 2.57  62 2.57  61 2.57  69 2.57  68 2.57
  68  0.500  0.500  0.375-  50 2.57  59 2.57  60 2.57  62 2.57  63 2.57  67 2.57  69 2.57
  69  0.500  0.833  0.375-  51 2.57  58 2.57  60 2.57  61 2.57  63 2.57  67 2.57  68 2.57
  70  0.833  0.167  0.375-  52 2.57  62 2.57  56 2.57  61 2.57  55 2.57  72 2.57  71 2.57
  71  0.833  0.500  0.375-  53 2.57  62 2.57  63 2.57  56 2.57  57 2.57  70 2.57  72 2.57
  72  0.833  0.833  0.375-  54 2.57  61 2.57  55 2.57  63 2.57  57 2.57  70 2.57  71 2.57
 
  LATTYP: Found a simple orthorhombic cell.
 ALAT       =     7.7003931999
 B/A-ratio  =     1.4142135422
 C/A-ratio  =     3.1146190498
  
  Lattice vectors:
  
 A1 = (   0.0000000000,  -7.7003931999,   0.0000000000)
 A2 = (  10.8900003433,   0.0000000000,   0.0000000000)
 A3 = (   0.0000000000,   0.0000000000,  23.9837913513)


Analysis of symmetry for initial positions (statically):
=====================================================================
 Subroutine PRICEL returns following result:
 
  LATTYP: Found a simple orthorhombic cell.
 ALAT       =     2.5667977330
 B/A-ratio  =     1.4142135422
 C/A-ratio  =     9.3438571505
  
  Lattice vectors:
  
 A1 = (   0.0000000000,  -2.5667977330,   0.0000000000)
 A2 = (   3.6300001140,   0.0000000000,   0.0000000000)
 A3 = (   0.0000000000,   0.0000000000,  23.9837913513)
 
   9 primitive cells build up your supercell.
 

 Routine SETGRP: Setting up the symmetry group for a 
 simple orthorhombic supercell.


 Subroutine GETGRP returns: Found  8 space group operations
 (whereof  4 operations were pure point group operations)
 out of a pool of  8 trial point group operations.


The static configuration has the point symmetry C_2v.
 The point group associated with its full space group is D_2h.


Analysis of symmetry for dynamics (positions and initial velocities):
=====================================================================
 Subroutine PRICEL returns following result:
 
  LATTYP: Found a simple orthorhombic cell.
 ALAT       =     2.5667977330
 B/A-ratio  =     1.4142135422
 C/A-ratio  =     9.3438571505
  
  Lattice vectors:
  
 A1 = (   0.0000000000,  -2.5667977330,   0.0000000000)
 A2 = (   3.6300001140,   0.0000000000,   0.0000000000)
 A3 = (   0.0000000000,   0.0000000000,  23.9837913513)
 
   9 primitive cells build up your supercell.
 

 Routine SETGRP: Setting up the symmetry group for a 
 simple orthorhombic supercell.


 Subroutine GETGRP returns: Found  8 space group operations
 (whereof  4 operations were pure point group operations)
 out of a pool of  8 trial point group operations.


The dynamic configuration has the point symmetry C_2v.
 The point group associated with its full space group is D_2h.


Analysis of constrained symmetry for selective dynamics:
=====================================================================
 Subroutine PRICEL returns following result:
 
  LATTYP: Found a simple orthorhombic cell.
 ALAT       =     2.5667977330
 B/A-ratio  =     1.4142135422
 C/A-ratio  =     9.3438571505
  
  Lattice vectors:
  
 A1 = (   0.0000000000,  -2.5667977330,   0.0000000000)
 A2 = (   3.6300001140,   0.0000000000,   0.0000000000)
 A3 = (   0.0000000000,   0.0000000000,  23.9837913513)
 
   9 primitive cells build up your supercell.
 

 Routine SETGRP: Setting up the symmetry group for a 
 simple orthorhombic supercell.


 Subroutine GETGRP returns: Found  4 space group operations
 (whereof  4 operations were pure point group operations)
 out of a pool of  8 trial point group operations.


The constrained configuration has the point symmetry C_2v.


Analysis of structural, dynamic, and magnetic symmetry:
=====================================================================
 Subroutine PRICEL returns following result:
 
  LATTYP: Found a simple orthorhombic cell.
 ALAT       =     2.5667977330
 B/A-ratio  =     1.4142135422
 C/A-ratio  =     9.3438571505
  
  Lattice vectors:
  
 A1 = (   0.0000000000,  -2.5667977330,   0.0000000000)
 A2 = (   3.6300001140,   0.0000000000,   0.0000000000)
 A3 = (   0.0000000000,   0.0000000000,  23.9837913513)
 
   9 primitive cells build up your supercell.
 

 Routine SETGRP: Setting up the symmetry group for a 
 simple orthorhombic supercell.


 Subroutine GETGRP returns: Found  4 space group operations
 (whereof  4 operations were pure point group operations)
 out of a pool of  8 trial point group operations.


The overall configuration has the point symmetry C_2v.


 Subroutine INISYM returns: Found  4 space group operations
 (whereof  4 operations are pure point group operations),
 and found     9 'primitive' translations


----------------------------------------------------------------------------------------

                                     Primitive cell                                     

  volume of cell :     223.4684

  direct lattice vectors                    reciprocal lattice vectors
     0.000000000 -2.566797733  0.000000000     0.000000000 -0.389590495  0.000000000
     3.630000114  0.000000000  0.000000000     0.275482085  0.000000000  0.000000000
     0.000000000  0.000000000 23.983791351     0.000000000  0.000000000  0.041694826

  length of vectors
     2.566797733  3.630000114 23.983791351     0.389590495  0.275482085  0.041694826

  position of ions in fractional coordinates (direct lattice)
     0.000000000  0.000000000  0.000000000
     0.499999999  0.500000000  0.053511090
     0.000000000  0.000000000  0.107022181
     0.499999999  0.500000000  0.160533271
     0.000000000  0.000000000  0.214044362
     0.499999999  0.500000000  0.267555452
     0.000000000  0.000000000  0.321066543
     0.499999999  0.500000000  0.374577633

  ion indices of the primitive-cell ions
   primitive index   ion index
                 1           1
                 2          12
                 3          19
                 4          30
                 5          37
                 6          48
                 7          55
                 8          66

----------------------------------------------------------------------------------------

 
 
 KPOINTS: Auto-mesh                               

Automatic generation of k-mesh.
 Grid dimensions read from file:
 generate k-points for:    3    3    1

 Generating k-lattice:

  Cartesian coordinates                     Fractional coordinates (reciprocal lattice)
     0.030609121  0.000000000  0.000000000     0.333333333  0.000000000  0.000000000
     0.000000000  0.043287833  0.000000000     0.000000000  0.333333333  0.000000000
     0.000000000  0.000000000  0.041694826     0.000000000  0.000000000  1.000000000

  Length of vectors
     0.030609121  0.043287833  0.041694826

  Shift w.r.t. Gamma in fractional coordinates (k-lattice)
     0.000000000  0.000000000  0.000000000

 
 Subroutine IBZKPT returns following result:
 ===========================================
 
 Found      4 irreducible k-points:
 
 Following reciprocal coordinates:
            Coordinates               Weight
  0.000000  0.000000  0.000000      1.000000
  0.333333  0.000000  0.000000      2.000000
  0.000000  0.333333  0.000000      2.000000
  0.333333  0.333333  0.000000      4.000000
 
 Following cartesian coordinates:
            Coordinates               Weight
  0.000000  0.000000  0.000000      1.000000
  0.030609  0.000000  0.000000      2.000000
  0.000000  0.043288  0.000000      2.000000
  0.030609  0.043288  0.000000      4.000000
 


--------------------------------------------------------------------------------------------------------




 Dimension of arrays:
   k-points           NKPTS =      4   k-points in BZ     NKDIM =      4   number of bands    NBANDS=    512
   number of dos      NEDOS =    301   number of ions     NIONS =     72
   non local maximal  LDIM  =      6   non local SUM 2l+1 LMDIM =     18
   total plane-waves  NPLWV = 259200
   max r-space proj   IRMAX =      1   max aug-charges    IRDMAX=   3932
   dimension x,y,z NGX =    54 NGY =   40 NGZ =  120
   dimension x,y,z NGXF=   108 NGYF=   80 NGZF=  240
   support grid    NGXF=   108 NGYF=   80 NGZF=  240
   ions per type =              72
   NGX,Y,Z   is equivalent  to a cutoff of   8.24,  8.64,  8.32 a.u.
   NGXF,Y,Z  is equivalent  to a cutoff of  16.49, 17.27, 16.64 a.u.

 SYSTEM =  unknown system                          
 POSCAR =  FCC Cu                                  

 Startparameter for this run:
   NWRITE =      2    write-flag & timer
   PREC   = normal    normal or accurate (medium, high low for compatibility)
   ISTART =      0    job   : 0-new  1-cont  2-samecut
   ICHARG =      2    charge: 1-file 2-atom 10-const
   ISPIN  =      2    spin polarized calculation?
   LNONCOLLINEAR =      F non collinear calculations
   LSORBIT =      F    spin-orbit coupling
   INIWAV =      1    electr: 0-lowe 1-rand  2-diag
   LASPH  =      F    aspherical Exc in radial PAW
 Electronic Relaxation 1
   ENCUT  =  400.0 eV  29.40 Ry    5.42 a.u.  17.76 12.56 39.11*2*pi/ulx,y,z
   ENINI  =  400.0     initial cutoff
   ENAUG  =  587.0 eV  augmentation charge cutoff
   NELM   =     60;   NELMIN=  2; NELMDL= -5     # of ELM steps 
   EDIFF  = 0.2E-03   stopping-criterion for ELM
   LREAL  =      F    real-space projection
   NLSPLINE    = F    spline interpolate recip. space projectors
   LCOMPAT=      F    compatible to vasp.4.4
   GGA_COMPAT  = T    GGA compatible to vasp.4.4-vasp.4.6
   LMAXPAW     = -100 max onsite density
   LMAXMIX     =    2 max onsite mixed and CHGCAR
   VOSKOWN=      0    Vosko Wilk Nusair interpolation
   ROPT   =    0.00000
 Ionic relaxation
   EDIFFG = -.3E-01   stopping-criterion for IOM
   NSW    =    800    number of steps for IOM
   NBLOCK =      1;   KBLOCK =    800    inner block; outer block 
   IBRION =      2    ionic relax: 0-MD 1-quasi-New 2-CG
   NFREE  =      1    steps in history (QN), initial steepest desc. (CG)
   ISIF   =      2    stress and relaxation
   IWAVPR =     11    prediction:  0-non 1-charg 2-wave 3-comb
   ISYM   =      1    0-nonsym 1-usesym 2-fastsym
   LCORR  =      T    Harris-Foulkes like correction to forces

   POTIM  = 0.5000    time-step for ionic-motion
   TEIN   =    0.0    initial temperature
   TEBEG  =    0.0;   TEEND  =   0.0 temperature during run
   SMASS  =  -3.00    Nose mass-parameter (am)
   estimated Nose-frequenzy (Omega)   =  0.10E-29 period in steps = 0.13E+47 mass=  -0.271E-26a.u.
   SCALEE = 1.0000    scale energy and forces
   NPACO  =    256;   APACO  = 10.0  distance and # of slots for P.C.
   PSTRESS=    0.0 pullay stress

  Mass of Ions in am
   POMASS =  63.55
  Ionic Valenz
   ZVAL   =  11.00
  Atomic Wigner-Seitz radii
   RWIGS  =  -1.00
  virtual crystal weights 
   VCA    =   1.00
   NELECT =     792.0000    total number of electrons
   NUPDOWN=      -1.0000    fix difference up-down

 DOS related values:
   EMIN   =  10.00;   EMAX   =-10.00  energy-range for DOS
   EFERMI =   0.00
   ISMEAR =     1;   SIGMA  =   0.20  broadening in eV -4-tet -1-fermi 0-gaus

 Electronic relaxation 2 (details)
   IALGO  =     38    algorithm
   LDIAG  =      T    sub-space diagonalisation (order eigenvalues)
   LSUBROT=      F    optimize rotation matrix (better conditioning)
   TURBO    =      0    0=normal 1=particle mesh
   IRESTART =      0    0=no restart 2=restart with 2 vectors
   NREBOOT  =      0    no. of reboots
   NMIN     =      0    reboot dimension
   EREF     =   0.00    reference energy to select bands
   IMIX   =      4    mixing-type and parameters
     AMIX     =   0.40;   BMIX     =  1.00
     AMIX_MAG =   1.60;   BMIX_MAG =  1.00
     AMIN     =   0.10
     WC   =   100.;   INIMIX=   1;  MIXPRE=   1;  MAXMIX= -45

 Intra band minimization:
   WEIMIN = 0.0010     energy-eigenvalue tresh-hold
   EBREAK =  0.98E-07  absolut break condition
   DEPER  =   0.30     relativ break condition  

   TIME   =   0.40     timestep for ELM

  volume/ion in A,a.u.               =      27.93       188.50
  Fermi-wavevector in a.u.,A,eV,Ry     =   1.199951  2.267579 19.590805  1.439884
  Thomas-Fermi vector in A             =   2.335800
 
 Write flags
   LWAVE        =      F    write WAVECAR
   LDOWNSAMPLE  =      F    k-point downsampling of WAVECAR
   LCHARG       =      F    write CHGCAR
   LVTOT        =      F    write LOCPOT, total local potential
   LVHAR        =      F    write LOCPOT, Hartree potential only
   LELF         =      F    write electronic localiz. function (ELF)
   LORBIT       =      0    0 simple, 1 ext, 2 COOP (PROOUT), +10 PAW based schemes


 Dipole corrections
   LMONO  =      F    monopole corrections only (constant potential shift)
   LDIPOL =      F    correct potential (dipole corrections)
   IDIPOL =      3    1-x, 2-y, 3-z, 4-all directions 
   EPSILON=  1.0000000 bulk dielectric constant

 Exchange correlation treatment:
   GGA     =    PE    GGA type
   LEXCH   =     8    internal setting for exchange type
   LIBXC   =     F    Libxc                    
   VOSKOWN =     0    Vosko Wilk Nusair interpolation
   LHFCALC =     F    Hartree Fock is set to
   LHFONE  =     F    Hartree Fock one center treatment
   AEXX    =    0.0000 exact exchange contribution

 Linear response parameters
   LEPSILON=     F    determine dielectric tensor
   LRPA    =     F    only Hartree local field effects (RPA)
   LNABLA  =     F    use nabla operator in PAW spheres
   LVEL    =     F    velocity operator in full k-point grid
   CSHIFT  =0.1000    complex shift for real part using Kramers Kronig
   OMEGAMAX=  -1.0    maximum frequency
   DEG_THRESHOLD= 0.2000000E-02 threshold for treating states as degnerate
   RTIME   =   -0.100 relaxation time in fs
  (WPLASMAI=    0.000 imaginary part of plasma frequency in eV, 0.658/RTIME)
   DFIELD  = 0.0000000 0.0000000 0.0000000 field for delta impulse in time
 
  Optional k-point grid parameters
   LKPOINTS_OPT  =     F    use optional k-point grid
   KPOINTS_OPT_MODE=     1    mode for optional k-point grid
 
 Orbital magnetization related:
   ORBITALMAG=     F  switch on orbital magnetization
   LCHIMAG   =     F  perturbation theory with respect to B field
   DQ        =  0.001000  dq finite difference perturbation B field
   LLRAUG    =     F  two centre corrections for induced B field



--------------------------------------------------------------------------------------------------------


 conjugate gradient relaxation of ions
   using selective dynamics as specified on POSCAR
   WARNING: If single coordinates had been selected the selection of coordinates
            is made according to the corresponding   d i r e c t   coordinates!
            Don't support selection of single cartesian coordinates -- sorry ...
  !
 charge density and potential will be updated during run
 spin polarized calculation
 Variant of blocked Davidson
 Davidson routine will perform the subspace rotation
 perform sub-space diagonalisation
    after iterative eigenvector-optimisation
 modified Broyden-mixing scheme, WC =      100.0
 initial mixing is a Kerker type mixing with AMIX =  0.4000 and BMIX =      1.0000
 Hartree-type preconditioning will be used
 using additional bands          116
 reciprocal scheme for non local part
 use partial core corrections
 calculate Harris-corrections to forces 
   (improved forces if not selfconsistent)
 use gradient corrections 
 use of overlap-Matrix (Vanderbilt PP)
 Methfessel and Paxton  Order N= 1 SIGMA  =   0.20


--------------------------------------------------------------------------------------------------------


  energy-cutoff  :      400.00
  volume of cell :     2011.22
      direct lattice vectors                 reciprocal lattice vectors
    10.890000343  0.000000000  0.000000000     0.091827362  0.000000000  0.000000000
     0.000000000  7.700393200  0.000000000     0.000000000  0.129863498  0.000000000
     0.000000000  0.000000000 23.983791351     0.000000000  0.000000000  0.041694826

  length of vectors
    10.890000343  7.700393200 23.983791351     0.091827362  0.129863498  0.041694826


 
 k-points in units of 2pi/SCALE and weight: Auto-mesh                               
   0.00000000  0.00000000  0.00000000       0.111
   0.03060912  0.00000000  0.00000000       0.222
   0.00000000  0.04328783  0.00000000       0.222
   0.03060912  0.04328783  0.00000000       0.444
 
 k-points in reciprocal lattice and weights: Auto-mesh                               
   0.00000000  0.00000000  0.00000000       0.111
   0.33333333  0.00000000  0.00000000       0.222
   0.00000000  0.33333333  0.00000000       0.222
   0.33333333  0.33333333  0.00000000       0.444
 
 position of ions in fractional coordinates (direct lattice) 
   0.00000000  0.00000000  0.00000000
   0.00000000  0.33333333  0.00000000
   0.00000000  0.66666667  0.00000000
   0.33333333  0.00000000  0.00000000
   0.33333333  0.33333333  0.00000000
   0.33333333  0.66666667  0.00000000
   0.66666667  0.00000000  0.00000000
   0.66666667  0.33333333  0.00000000
   0.66666667  0.66666667  0.00000000
   0.16666667  0.16666667  0.05351109
   0.16666667  0.50000000  0.05351109
   0.16666667  0.83333333  0.05351109
   0.50000000  0.16666667  0.05351109
   0.50000000  0.50000000  0.05351109
   0.50000000  0.83333333  0.05351109
   0.83333333  0.16666667  0.05351109
   0.83333333  0.50000000  0.05351109
   0.83333333  0.83333333  0.05351109
   0.00000000  0.00000000  0.10702218
   0.00000000  0.33333333  0.10702218
   0.00000000  0.66666667  0.10702218
   0.33333333  0.00000000  0.10702218
   0.33333333  0.33333333  0.10702218
   0.33333333  0.66666667  0.10702218
   0.66666667  0.00000000  0.10702218
   0.66666667  0.33333333  0.10702218
   0.66666667  0.66666667  0.10702218
   0.16666667  0.16666667  0.16053327
   0.16666667  0.50000000  0.16053327
   0.16666667  0.83333333  0.16053327
   0.50000000  0.16666667  0.16053327
   0.50000000  0.50000000  0.16053327
   0.50000000  0.83333333  0.16053327
   0.83333333  0.16666667  0.16053327
   0.83333333  0.50000000  0.16053327
   0.83333333  0.83333333  0.16053327
   0.00000000  0.00000000  0.21404436
   0.00000000  0.33333333  0.21404436
   0.00000000  0.66666667  0.21404436
   0.33333333  0.00000000  0.21404436
   0.33333333  0.33333333  0.21404436
   0.33333333  0.66666667  0.21404436
   0.66666667  0.00000000  0.21404436
   0.66666667  0.33333333  0.21404436
   0.66666667  0.66666667  0.21404436
   0.16666667  0.16666667  0.26755545
   0.16666667  0.50000000  0.26755545
   0.16666667  0.83333333  0.26755545
   0.50000000  0.16666667  0.26755545
   0.50000000  0.50000000  0.26755545
   0.50000000  0.83333333  0.26755545
   0.83333333  0.16666667  0.26755545
   0.83333333  0.50000000  0.26755545
   0.83333333  0.83333333  0.26755545
   0.00000000  0.00000000  0.32106654
   0.00000000  0.33333333  0.32106654
   0.00000000  0.66666667  0.32106654
   0.33333333  0.00000000  0.32106654
   0.33333333  0.33333333  0.32106654
   0.33333333  0.66666667  0.32106654
   0.66666667  0.00000000  0.32106654
   0.66666667  0.33333333  0.32106654
   0.66666667  0.66666667  0.32106654
   0.16666667  0.16666667  0.37457763
   0.16666667  0.50000000  0.37457763
   0.16666667  0.83333333  0.37457763
   0.50000000  0.16666667  0.37457763
   0.50000000  0.50000000  0.37457763
   0.50000000  0.83333333  0.37457763
   0.83333333  0.16666667  0.37457763
   0.83333333  0.50000000  0.37457763
   0.83333333  0.83333333  0.37457763
 
 position of ions in cartesian coordinates  (Angst):
   0.00000000  0.00000000  0.00000000
   0.00000000  2.56679773  0.00000000
   0.00000000  5.13359547  0.00000000
   3.63000011  0.00000000  0.00000000
   3.63000011  2.56679773  0.00000000
   3.63000011  5.13359547  0.00000000
   7.26000023  0.00000000  0.00000000
   7.26000023  2.56679773  0.00000000
   7.26000023  5.13359547  0.00000000
   1.81500006  1.28339887  1.28339883
   1.81500006  3.85019660  1.28339883
   1.81500006  6.41699433  1.28339883
   5.44500017  1.28339887  1.28339883
   5.44500017  3.85019660  1.28339883
   5.44500017  6.41699433  1.28339883
   9.07500029  1.28339887  1.28339883
   9.07500029  3.85019660  1.28339883
   9.07500029  6.41699433  1.28339883
   0.00000000  0.00000000  2.56679766
   0.00000000  2.56679773  2.56679766
   0.00000000  5.13359547  2.56679766
   3.63000011  0.00000000  2.56679766
   3.63000011  2.56679773  2.56679766
   3.63000011  5.13359547  2.56679766
   7.26000023  0.00000000  2.56679766
   7.26000023  2.56679773  2.56679766
   7.26000023  5.13359547  2.56679766
   1.81500006  1.28339887  3.85019648
   1.81500006  3.85019660  3.85019648
   1.81500006  6.41699433  3.85019648
   5.44500017  1.28339887  3.85019648
   5.44500017  3.85019660  3.85019648
   5.44500017  6.41699433  3.85019648
   9.07500029  1.28339887  3.85019648
   9.07500029  3.85019660  3.85019648
   9.07500029  6.41699433  3.85019648
   0.00000000  0.00000000  5.13359531
   0.00000000  2.56679773  5.13359531
   0.00000000  5.13359547  5.13359531
   3.63000011  0.00000000  5.13359531
   3.63000011  2.56679773  5.13359531
   3.63000011  5.13359547  5.13359531
   7.26000023  0.00000000  5.13359531
   7.26000023  2.56679773  5.13359531
   7.26000023  5.13359547  5.13359531
   1.81500006  1.28339887  6.41699414
   1.81500006  3.85019660  6.41699414
   1.81500006  6.41699433  6.41699414
   5.44500017  1.28339887  6.41699414
   5.44500017  3.85019660  6.41699414
   5.44500017  6.41699433  6.41699414
   9.07500029  1.28339887  6.41699414
   9.07500029  3.85019660  6.41699414
   9.07500029  6.41699433  6.41699414
   0.00000000  0.00000000  7.70039297
   0.00000000  2.56679773  7.70039297
   0.00000000  5.13359547  7.70039297
   3.63000011  0.00000000  7.70039297
   3.63000011  2.56679773  7.70039297
   3.63000011  5.13359547  7.70039297
   7.26000023  0.00000000  7.70039297
   7.26000023  2.56679773  7.70039297
   7.26000023  5.13359547  7.70039297
   1.81500006  1.28339887  8.98379180
   1.81500006  3.85019660  8.98379180
   1.81500006  6.41699433  8.98379180
   5.44500017  1.28339887  8.98379180
   5.44500017  3.85019660  8.98379180
   5.44500017  6.41699433  8.98379180
   9.07500029  1.28339887  8.98379180
   9.07500029  3.85019660  8.98379180
   9.07500029  6.41699433  8.98379180
 


--------------------------------------------------------------------------------------------------------


 k-point   1 :   0.0000 0.0000 0.0000  plane waves:   36517
 k-point   2 :   0.3333 0.0000 0.0000  plane waves:   36556
 k-point   3 :   0.0000 0.3333 0.0000  plane waves:   36517
 k-point   4 :   0.3333 0.3333 0.0000  plane waves:   36510

 maximum and minimum number of plane-waves per node :      7348     7276

 maximum number of plane-waves:     36556
 maximum index in each direction: 
   IXMAX=   17   IYMAX=   12   IZMAX=   39
   IXMIN=  -18   IYMIN=  -12   IZMIN=  -39


 parallel 3D FFT for wavefunctions:
    minimum data exchange during FFTs selected (reduces bandwidth)
 parallel 3D FFT for charge:
    minimum data exchange during FFTs selected (reduces bandwidth)


 total amount of memory used by VASP MPI-rank0   185356. kBytes
=======================================================================

   base      :      30000. kBytes
   nonl-proj :      12635. kBytes
   fftplans  :       5413. kBytes
   grid      :      12586. kBytes
   one-center:        466. kBytes
   wavefun   :     124256. kBytes
 
     INWAV:  cpu time      0.0000: real time      0.0006
 Broyden mixing: mesh for mixing (old mesh)
   NGX = 35   NGY = 25   NGZ = 79
  (NGX  =108   NGY  = 80   NGZ  =240)
  gives a total of  69125 points

 initial charge density was supplied:
 charge density of overlapping atoms calculated
 number of electron     792.0000000 magnetization      72.0000000
 keeping initial charge density in first step


--------------------------------------------------------------------------------------------------------


 Maximum index for augmentation-charges          371 (set IRDMAX)


--------------------------------------------------------------------------------------------------------


 First call to EWALD:  gamma=   0.140
 Maximum number of real-space cells 3x 4x 2
 Maximum number of reciprocal cells 2x 2x 5

    FEWALD:  cpu time      0.0042: real time      0.0042


--------------------------------------- Iteration      1(   1)  ---------------------------------------


    POTLOK:  cpu time      0.1574: real time      0.7713
    SETDIJ:  cpu time      0.0243: real time      0.0244
     EDDAV:  cpu time     93.0510: real time     94.6532
       DOS:  cpu time      0.0047: real time      0.0048
    --------------------------------------------
      LOOP:  cpu time     93.2374: real time     95.4537

 eigenvalue-minimisations  :  8192
 total energy-change (2. order) : 0.7348027E+04  (-0.2834235E+05)
 number of electron     792.0000000 magnetization      72.0000000
 augmentation part      792.0000000 magnetization      72.0000000

 Free energy of the ion-electron system (eV)
  ---------------------------------------------------
  alpha Z        PSCENC =      1885.03137702
  Ewald energy   TEWEN  =    369450.78347590
  -Hartree energ DENC   =   -466485.64868196
  -exchange      EXHF   =         0.00000000
  -V(xc)+E(xc)   XCENC  =      3285.58213086
  PAW double counting   =     88423.01971552   -96042.30706980
  entropy T*S    EENTRO =        -0.01738028
  eigenvalues    EBANDS =      6682.63323210
  atomic energy  EATOM  =    100148.95009438
  Solvation  Ediel_sol  =         0.00000000
  ---------------------------------------------------
  free energy    TOTEN  =      7348.02689375 eV

  energy without entropy =     7348.04427403  energy(sigma->0) =     7348.03268718


--------------------------------------------------------------------------------------------------------




--------------------------------------- Iteration      1(   2)  ---------------------------------------


     EDDAV:  cpu time     90.3599: real time     91.0706
       DOS:  cpu time      0.0072: real time      0.0072
    --------------------------------------------
      LOOP:  cpu time     90.3672: real time     91.0779

 eigenvalue-minimisations  :  8192
 total energy-change (2. order) :-0.6455490E+04  (-0.6182507E+04)
 number of electron     792.0000000 magnetization      72.0000000
 augmentation part      792.0000000 magnetization      72.0000000

 Free energy of the ion-electron system (eV)
  ---------------------------------------------------
  alpha Z        PSCENC =      1885.03137702
  Ewald energy   TEWEN  =    369450.78347590
  -Hartree energ DENC   =   -466485.64868196
  -exchange      EXHF   =         0.00000000
  -V(xc)+E(xc)   XCENC  =      3285.58213086
  PAW double counting   =     88423.01971552   -96042.30706980
  entropy T*S    EENTRO =        -0.00271332
  eigenvalues    EBANDS =       227.12831376
  atomic energy  EATOM  =    100148.95009438
  Solvation  Ediel_sol  =         0.00000000
  ---------------------------------------------------
  free energy    TOTEN  =       892.53664237 eV

  energy without entropy =      892.53935569  energy(sigma->0) =      892.53754681


--------------------------------------------------------------------------------------------------------




--------------------------------------- Iteration      1(   3)  ---------------------------------------


     EDDAV:  cpu time     90.4620: real time     91.1176
       DOS:  cpu time      0.0071: real time      0.0071
    --------------------------------------------
      LOOP:  cpu time     90.4691: real time     91.1248

 eigenvalue-minimisations  :  8192
 total energy-change (2. order) :-0.1109686E+04  (-0.9973374E+03)
 number of electron     792.0000000 magnetization      72.0000000
 augmentation part      792.0000000 magnetization      72.0000000

 Free energy of the ion-electron system (eV)
  ---------------------------------------------------
  alpha Z        PSCENC =      1885.03137702
  Ewald energy   TEWEN  =    369450.78347590
  -Hartree energ DENC   =   -466485.64868196
  -exchange      EXHF   =         0.00000000
  -V(xc)+E(xc)   XCENC  =      3285.58213086
  PAW double counting   =     88423.01971552   -96042.30706980
  entropy T*S    EENTRO =         0.04531173
  eigenvalues    EBANDS =      -882.60620727
  atomic energy  EATOM  =    100148.95009438
  Solvation  Ediel_sol  =         0.00000000
  ---------------------------------------------------
  free energy    TOTEN  =      -217.14985361 eV

  energy without entropy =     -217.19516534  energy(sigma->0) =     -217.16495752


--------------------------------------------------------------------------------------------------------




--------------------------------------- Iteration      1(   4)  ---------------------------------------


     EDDAV:  cpu time    101.5035: real time    102.8627
       DOS:  cpu time      0.0096: real time      0.0096
    --------------------------------------------
      LOOP:  cpu time    101.5130: real time    102.8723

 eigenvalue-minimisations  :  9152
 total energy-change (2. order) :-0.7940984E+02  (-0.7644219E+02)
 number of electron     792.0000000 magnetization      72.0000000
 augmentation part      792.0000000 magnetization      72.0000000

 Free energy of the ion-electron system (eV)
  ---------------------------------------------------
  alpha Z        PSCENC =      1885.03137702
  Ewald energy   TEWEN  =    369450.78347590
  -Hartree energ DENC   =   -466485.64868196
  -exchange      EXHF   =         0.00000000
  -V(xc)+E(xc)   XCENC  =      3285.58213086
  PAW double counting   =     88423.01971552   -96042.30706980
  entropy T*S    EENTRO =         0.10334227
  eigenvalues    EBANDS =      -962.07408121
  atomic energy  EATOM  =    100148.95009438
  Solvation  Ediel_sol  =         0.00000000
  ---------------------------------------------------
  free energy    TOTEN  =      -296.55969700 eV

  energy without entropy =     -296.66303928  energy(sigma->0) =     -296.59414443


--------------------------------------------------------------------------------------------------------




--------------------------------------- Iteration      1(   5)  ---------------------------------------


     EDDAV:  cpu time     99.1631: real time     99.9162
       DOS:  cpu time      0.0076: real time      0.0077
    CHARGE:  cpu time      1.8299: real time      1.8400
    MIXING:  cpu time      0.0052: real time      0.0053
    --------------------------------------------
      LOOP:  cpu time    101.0059: real time    101.7692

 eigenvalue-minimisations  :  9168
 total energy-change (2. order) :-0.1959914E+01  (-0.1952172E+01)
 number of electron     792.0004896 magnetization      65.8588925
 augmentation part      469.5409217 magnetization      64.7121976

 Broyden mixing:
  rms(total) = 0.77709E+01    rms(broyden)= 0.77705E+01
  rms(prec ) = 0.80270E+01
  weight for this iteration     100.00

 Free energy of the ion-electron system (eV)
  ---------------------------------------------------
  alpha Z        PSCENC =      1885.03137702
  Ewald energy   TEWEN  =    369450.78347590
  -Hartree energ DENC   =   -466485.64868196
  -exchange      EXHF   =         0.00000000
  -V(xc)+E(xc)   XCENC  =      3285.58213086
  PAW double counting   =     88423.01971552   -96042.30706980
  entropy T*S    EENTRO =         0.10617104
  eigenvalues    EBANDS =      -964.03682355
  atomic energy  EATOM  =    100148.95009438
  Solvation  Ediel_sol  =         0.00000000
  ---------------------------------------------------
  free energy    TOTEN  =      -298.51961058 eV

  energy without entropy =     -298.62578162  energy(sigma->0) =     -298.55500093


--------------------------------------------------------------------------------------------------------




--------------------------------------- Iteration      1(   6)  ---------------------------------------


    POTLOK:  cpu time      0.1525: real time      0.1578
    SETDIJ:  cpu time      0.0241: real time      0.0242
     EDDAV:  cpu time     95.5065: real time     96.1654
       DOS:  cpu time      0.0061: real time      0.0061
    CHARGE:  cpu time      1.8182: real time      1.8299
    MIXING:  cpu time      0.0058: real time      0.0058
    --------------------------------------------
      LOOP:  cpu time     97.5133: real time     98.1893

 eigenvalue-minimisations  :  8800
 total energy-change (2. order) : 0.5463024E+02  (-0.7122846E+02)
 number of electron     792.0005395 magnetization      61.9179868
 augmentation part      528.8049322 magnetization      45.9845913

 Broyden mixing:
  rms(total) = 0.39893E+01    rms(broyden)= 0.39885E+01
  rms(prec ) = 0.41622E+01
  weight for this iteration     100.00

 eigenvalues of (default mixing * dielectric matrix)
  average eigenvalue GAMMA=   0.7924
  0.7924

 Free energy of the ion-electron system (eV)
  ---------------------------------------------------
  alpha Z        PSCENC =      1885.03137702
  Ewald energy   TEWEN  =    369450.78347590
  -Hartree energ DENC   =   -464606.70138645
  -exchange      EXHF   =         0.00000000
  -V(xc)+E(xc)   XCENC  =      3202.63563149
  PAW double counting   =     89364.24558101   -96597.69999448
  entropy T*S    EENTRO =        -0.05657463
  eigenvalues    EBANDS =     -3091.07757624
  atomic energy  EATOM  =    100148.95009438
  Solvation  Ediel_sol  =         0.00000000
  ---------------------------------------------------
  free energy    TOTEN  =      -243.88937200 eV

  energy without entropy =     -243.83279737  energy(sigma->0) =     -243.87051379


--------------------------------------------------------------------------------------------------------




--------------------------------------- Iteration      1(   7)  ---------------------------------------


    POTLOK:  cpu time      0.1519: real time      0.1560
    SETDIJ:  cpu time      0.0234: real time      0.0235
     EDDAV:  cpu time     98.5510: real time     99.4460
       DOS:  cpu time      0.0066: real time      0.0067
    CHARGE:  cpu time      1.7998: real time      1.8119
    MIXING:  cpu time      0.0119: real time      0.0120
    --------------------------------------------
      LOOP:  cpu time    100.5447: real time    101.4561

 eigenvalue-minimisations  :  8936
 total energy-change (2. order) : 0.3410942E+02  (-0.1810631E+02)
 number of electron     792.0005246 magnetization      57.6296946
 augmentation part      507.8641995 magnetization      40.3120463

 Broyden mixing:
  rms(total) = 0.19760E+01    rms(broyden)= 0.19757E+01
  rms(prec ) = 0.20103E+01
  weight for this iteration     100.00

 eigenvalues of (default mixing * dielectric matrix)
  average eigenvalue GAMMA=   0.8144
  0.9967  0.6321

 Free energy of the ion-electron system (eV)
  ---------------------------------------------------
  alpha Z        PSCENC =      1885.03137702
  Ewald energy   TEWEN  =    369450.78347590
  -Hartree energ DENC   =   -465650.10203778
  -exchange      EXHF   =         0.00000000
  -V(xc)+E(xc)   XCENC  =      3243.46892037
  PAW double counting   =     91200.47198794   -98796.86365211
  entropy T*S    EENTRO =        -0.00756472
  eigenvalues    EBANDS =     -1691.51255542
  atomic energy  EATOM  =    100148.95009438
  Solvation  Ediel_sol  =         0.00000000
  ---------------------------------------------------
  free energy    TOTEN  =      -209.77995442 eV

  energy without entropy =     -209.77238970  energy(sigma->0) =     -209.77743284


--------------------------------------------------------------------------------------------------------




--------------------------------------- Iteration      1(   8)  ---------------------------------------


    POTLOK:  cpu time      0.1443: real time      0.1493
    SETDIJ:  cpu time      0.0338: real time      0.0339
     EDDAV:  cpu time    103.1640: real time    103.8515
       DOS:  cpu time      0.0074: real time      0.0074
    CHARGE:  cpu time      1.8145: real time      1.8239
    MIXING:  cpu time      0.0070: real time      0.0070
    --------------------------------------------
      LOOP:  cpu time    105.1710: real time    105.8729

 eigenvalue-minimisations  :  9592
 total energy-change (2. order) : 0.5358988E+01  (-0.4535340E+01)
 number of electron     792.0005177 magnetization      52.9043387
 augmentation part      505.6631635 magnetization      35.0184557

 Broyden mixing:
  rms(total) = 0.18636E+01    rms(broyden)= 0.18635E+01
  rms(prec ) = 0.19394E+01
  weight for this iteration     100.00

 eigenvalues of (default mixing * dielectric matrix)
  average eigenvalue GAMMA=   0.7301
  1.1286  0.6548  0.4070

 Free energy of the ion-electron system (eV)
  ---------------------------------------------------
  alpha Z        PSCENC =      1885.03137702
  Ewald energy   TEWEN  =    369450.78347590
  -Hartree energ DENC   =   -465688.53573607
  -exchange      EXHF   =         0.00000000
  -V(xc)+E(xc)   XCENC  =      3248.66691922
  PAW double counting   =     92228.65486497   -99908.53292244
  entropy T*S    EENTRO =         0.00532798
  eigenvalues    EBANDS =     -1569.44436747
  atomic energy  EATOM  =    100148.95009438
  Solvation  Ediel_sol  =         0.00000000
  ---------------------------------------------------
  free energy    TOTEN  =      -204.42096651 eV

  energy without entropy =     -204.42629449  energy(sigma->0) =     -204.42274250


--------------------------------------------------------------------------------------------------------




--------------------------------------- Iteration      1(   9)  ---------------------------------------


    POTLOK:  cpu time      0.1393: real time      0.1445
    SETDIJ:  cpu time      0.0235: real time      0.0235
     EDDAV:  cpu time    115.5303: real time    116.2748
       DOS:  cpu time      0.0076: real time      0.0076
    CHARGE:  cpu time      1.7744: real time      1.7840
    MIXING:  cpu time      0.0123: real time      0.0123
    --------------------------------------------
      LOOP:  cpu time    117.4873: real time    118.2467

 eigenvalue-minimisations  : 11152
 total energy-change (2. order) : 0.5107280E+01  (-0.1304359E+01)
 number of electron     792.0005195 magnetization      40.9485565
 augmentation part      504.2439277 magnetization      22.8595297

 Broyden mixing:
  rms(total) = 0.14701E+01    rms(broyden)= 0.14700E+01
  rms(prec ) = 0.14807E+01
  weight for this iteration     100.00

 eigenvalues of (default mixing * dielectric matrix)
  average eigenvalue GAMMA=   0.9892
  1.5938  1.2329  0.7550  0.3753

 Free energy of the ion-electron system (eV)
  ---------------------------------------------------
  alpha Z        PSCENC =      1885.03137702
  Ewald energy   TEWEN  =    369450.78347590
  -Hartree energ DENC   =   -465860.14636724
  -exchange      EXHF   =         0.00000000
  -V(xc)+E(xc)   XCENC  =      3249.11942818
  PAW double counting   =     93096.61606932  -100833.39832835
  entropy T*S    EENTRO =         0.02721809
  eigenvalues    EBANDS =     -1336.29665391
  atomic energy  EATOM  =    100148.95009438
  Solvation  Ediel_sol  =         0.00000000
  ---------------------------------------------------
  free energy    TOTEN  =      -199.31368661 eV

  energy without entropy =     -199.34090470  energy(sigma->0) =     -199.32275931


--------------------------------------------------------------------------------------------------------




--------------------------------------- Iteration      1(  10)  ---------------------------------------


    POTLOK:  cpu time      0.1509: real time      0.1561
    SETDIJ:  cpu time      0.0304: real time      0.0305
     EDDAV:  cpu time    128.1492: real time    129.4956
       DOS:  cpu time      0.0078: real time      0.0079
    CHARGE:  cpu time      1.8074: real time      1.8169
    MIXING:  cpu time      0.0139: real time      0.0140
    --------------------------------------------
      LOOP:  cpu time    130.1596: real time    131.5208

 eigenvalue-minimisations  : 12272
 total energy-change (2. order) : 0.9748341E+00  (-0.1259739E+01)
 number of electron     792.0005194 magnetization      25.9881755
 augmentation part      507.7679346 magnetization       9.9624410

 Broyden mixing:
  rms(total) = 0.12860E+01    rms(broyden)= 0.12859E+01
  rms(prec ) = 0.13467E+01
  weight for this iteration     100.00

 eigenvalues of (default mixing * dielectric matrix)
  average eigenvalue GAMMA=   1.2365
  3.5047  1.1407  0.6978  0.4748  0.3648

 Free energy of the ion-electron system (eV)
  ---------------------------------------------------
  alpha Z        PSCENC =      1885.03137702
  Ewald energy   TEWEN  =    369450.78347590
  -Hartree energ DENC   =   -465706.25866829
  -exchange      EXHF   =         0.00000000
  -V(xc)+E(xc)   XCENC  =      3239.63122791
  PAW double counting   =     94167.22058604  -101920.40253826
  entropy T*S    EENTRO =        -0.01118635
  eigenvalues    EBANDS =     -1463.28322090
  atomic energy  EATOM  =    100148.95009438
  Solvation  Ediel_sol  =         0.00000000
  ---------------------------------------------------
  free energy    TOTEN  =      -198.33885254 eV

  energy without entropy =     -198.32766620  energy(sigma->0) =     -198.33512376


--------------------------------------------------------------------------------------------------------




--------------------------------------- Iteration      1(  11)  ---------------------------------------


    POTLOK:  cpu time      0.1394: real time      0.1443
    SETDIJ:  cpu time      0.0234: real time      0.0236
     EDDAV:  cpu time    103.2440: real time    103.9335
       DOS:  cpu time      0.0074: real time      0.0074
    CHARGE:  cpu time      1.8248: real time      1.8344
    MIXING:  cpu time      0.0083: real time      0.0083
    --------------------------------------------
      LOOP:  cpu time    105.2474: real time    105.9516

 eigenvalue-minimisations  :  9720
 total energy-change (2. order) :-0.1632778E+01  (-0.1305023E+01)
 number of electron     792.0005247 magnetization      16.0599778
 augmentation part      510.1714772 magnetization       2.3090565

 Broyden mixing:
  rms(total) = 0.10700E+01    rms(broyden)= 0.10699E+01
  rms(prec ) = 0.11058E+01
  weight for this iteration     100.00

 eigenvalues of (default mixing * dielectric matrix)
  average eigenvalue GAMMA=   1.4413
  5.1041  1.0960  0.8398  0.8398  0.4073  0.3606

 Free energy of the ion-electron system (eV)
  ---------------------------------------------------
  alpha Z        PSCENC =      1885.03137702
  Ewald energy   TEWEN  =    369450.78347590
  -Hartree energ DENC   =   -465829.66677398
  -exchange      EXHF   =         0.00000000
  -V(xc)+E(xc)   XCENC  =      3232.32473458
  PAW double counting   =     95277.90592368  -103065.82736554
  entropy T*S    EENTRO =        -0.00759347
  eigenvalues    EBANDS =     -1299.46550296
  atomic energy  EATOM  =    100148.95009438
  Solvation  Ediel_sol  =         0.00000000
  ---------------------------------------------------
  free energy    TOTEN  =      -199.97163040 eV

  energy without entropy =     -199.96403693  energy(sigma->0) =     -199.96909924


--------------------------------------------------------------------------------------------------------




--------------------------------------- Iteration      1(  12)  ---------------------------------------


    POTLOK:  cpu time      0.1392: real time      0.1445
    SETDIJ:  cpu time      0.0234: real time      0.0235
     EDDAV:  cpu time    107.1080: real time    107.9557
       DOS:  cpu time      0.0070: real time      0.0071
    CHARGE:  cpu time      1.7982: real time      1.8077
    MIXING:  cpu time      0.0087: real time      0.0087
    --------------------------------------------
      LOOP:  cpu time    109.0845: real time    109.9472

 eigenvalue-minimisations  : 10104
 total energy-change (2. order) :-0.1073126E+02  (-0.8365008E+00)
 number of electron     792.0005209 magnetization      10.8371883
 augmentation part      506.8716005 magnetization      -0.3714740

 Broyden mixing:
  rms(total) = 0.50059E+00    rms(broyden)= 0.50054E+00
  rms(prec ) = 0.54947E+00
  weight for this iteration     100.00

 eigenvalues of (default mixing * dielectric matrix)
  average eigenvalue GAMMA=   1.7432
  7.5173  1.4929  0.8635  0.8635  0.6960  0.3657  0.4036

 Free energy of the ion-electron system (eV)
  ---------------------------------------------------
  alpha Z        PSCENC =      1885.03137702
  Ewald energy   TEWEN  =    369450.78347590
  -Hartree energ DENC   =   -466114.29646206
  -exchange      EXHF   =         0.00000000
  -V(xc)+E(xc)   XCENC  =      3231.31063378
  PAW double counting   =     95430.75454138  -103258.42344835
  entropy T*S    EENTRO =        -0.00276741
  eigenvalues    EBANDS =      -984.81033514
  atomic energy  EATOM  =    100148.95009438
  Solvation  Ediel_sol  =         0.00000000
  ---------------------------------------------------
  free energy    TOTEN  =      -210.70289049 eV

  energy without entropy =     -210.70012309  energy(sigma->0) =     -210.70196803


--------------------------------------------------------------------------------------------------------




--------------------------------------- Iteration      1(  13)  ---------------------------------------


    POTLOK:  cpu time      0.1393: real time      0.1443
    SETDIJ:  cpu time      0.0234: real time      0.0235
     EDDAV:  cpu time    111.6072: real time    112.5117
       DOS:  cpu time      0.0076: real time      0.0076
    CHARGE:  cpu time      1.7989: real time      1.8084
    MIXING:  cpu time      0.0093: real time      0.0094
    --------------------------------------------
      LOOP:  cpu time    113.5858: real time    114.5050

 eigenvalue-minimisations  : 10408
 total energy-change (2. order) :-0.1260154E+02  (-0.6505554E+00)
 number of electron     792.0005189 magnetization       9.0383425
 augmentation part      505.4718164 magnetization       0.6310427

 Broyden mixing:
  rms(total) = 0.39211E+00    rms(broyden)= 0.39205E+00
  rms(prec ) = 0.49020E+00
  weight for this iteration     100.00

 eigenvalues of (default mixing * dielectric matrix)
  average eigenvalue GAMMA=   1.7678
  8.6463  1.7438  0.8406  0.8406  0.8407  0.4606  0.3848  0.3848

 Free energy of the ion-electron system (eV)
  ---------------------------------------------------
  alpha Z        PSCENC =      1885.03137702
  Ewald energy   TEWEN  =    369450.78347590
  -Hartree energ DENC   =   -466099.12225301
  -exchange      EXHF   =         0.00000000
  -V(xc)+E(xc)   XCENC  =      3226.27960323
  PAW double counting   =     94708.83450812  -102505.93819305
  entropy T*S    EENTRO =        -0.02035663
  eigenvalues    EBANDS =     -1038.10268491
  atomic energy  EATOM  =    100148.95009438
  Solvation  Ediel_sol  =         0.00000000
  ---------------------------------------------------
  free energy    TOTEN  =      -223.30442896 eV

  energy without entropy =     -223.28407233  energy(sigma->0) =     -223.29764341


--------------------------------------------------------------------------------------------------------




--------------------------------------- Iteration      1(  14)  ---------------------------------------


    POTLOK:  cpu time      0.1399: real time      0.1451
    SETDIJ:  cpu time      0.0234: real time      0.0235
     EDDAV:  cpu time    127.5885: real time    128.4142
       DOS:  cpu time      0.0078: real time      0.0078
    CHARGE:  cpu time      1.8052: real time      1.8148
    MIXING:  cpu time      0.0230: real time      0.0230
    --------------------------------------------
      LOOP:  cpu time    129.5877: real time    130.4285

 eigenvalue-minimisations  : 12568
 total energy-change (2. order) :-0.6004351E+01  (-0.3531937E+00)
 number of electron     792.0005188 magnetization       6.4309320
 augmentation part      505.1377885 magnetization      -0.7169565

 Broyden mixing:
  rms(total) = 0.29621E+00    rms(broyden)= 0.29616E+00
  rms(prec ) = 0.35887E+00
  weight for this iteration     100.00

 eigenvalues of (default mixing * dielectric matrix)
  average eigenvalue GAMMA=   1.7957
  9.5814  2.2165  1.0619  0.8096  0.8096  0.6184  0.4013  0.3762  0.2868

 Free energy of the ion-electron system (eV)
  ---------------------------------------------------
  alpha Z        PSCENC =      1885.03137702
  Ewald energy   TEWEN  =    369450.78347590
  -Hartree energ DENC   =   -466064.19295213
  -exchange      EXHF   =         0.00000000
  -V(xc)+E(xc)   XCENC  =      3222.92289604
  PAW double counting   =     94378.75743103  -102159.60709209
  entropy T*S    EENTRO =        -0.01685195
  eigenvalues    EBANDS =     -1091.93715782
  atomic energy  EATOM  =    100148.95009438
  Solvation  Ediel_sol  =         0.00000000
  ---------------------------------------------------
  free energy    TOTEN  =      -229.30877962 eV

  energy without entropy =     -229.29192767  energy(sigma->0) =     -229.30316230


--------------------------------------------------------------------------------------------------------




--------------------------------------- Iteration      1(  15)  ---------------------------------------


    POTLOK:  cpu time      0.1399: real time      0.1445
    SETDIJ:  cpu time      0.0234: real time      0.0236
     EDDAV:  cpu time    118.9482: real time    120.0178
       DOS:  cpu time      0.0177: real time      0.0177
    CHARGE:  cpu time      1.8543: real time      1.8638
    MIXING:  cpu time      0.0215: real time      0.0208
    --------------------------------------------
      LOOP:  cpu time    121.0051: real time    122.0882

 eigenvalue-minimisations  : 11208
 total energy-change (2. order) :-0.1002118E+02  (-0.8009195E+00)
 number of electron     792.0005189 magnetization       5.3502042
 augmentation part      505.2200722 magnetization       0.2531456

 Broyden mixing:
  rms(total) = 0.20913E+00    rms(broyden)= 0.20908E+00
  rms(prec ) = 0.23387E+00
  weight for this iteration     100.00

 eigenvalues of (default mixing * dielectric matrix)
  average eigenvalue GAMMA=   1.7682
  9.8835  2.6747  0.9663  0.8706  0.8706  0.6991  0.6991  0.3988  0.3689  0.2499

 Free energy of the ion-electron system (eV)
  ---------------------------------------------------
  alpha Z        PSCENC =      1885.03137702
  Ewald energy   TEWEN  =    369450.78347590
  -Hartree energ DENC   =   -465970.40614966
  -exchange      EXHF   =         0.00000000
  -V(xc)+E(xc)   XCENC  =      3216.04364724
  PAW double counting   =     93831.46825815  -101581.41290969
  entropy T*S    EENTRO =         0.00533832
  eigenvalues    EBANDS =     -1219.79309122
  atomic energy  EATOM  =    100148.95009438
  Solvation  Ediel_sol  =         0.00000000
  ---------------------------------------------------
  free energy    TOTEN  =      -239.32995956 eV

  energy without entropy =     -239.33529788  energy(sigma->0) =     -239.33173900


--------------------------------------------------------------------------------------------------------




--------------------------------------- Iteration      1(  16)  ---------------------------------------


    POTLOK:  cpu time      0.1456: real time      0.1507
    SETDIJ:  cpu time      0.0234: real time      0.0236
     EDDAV:  cpu time     96.7000: real time     97.3187
       DOS:  cpu time      0.0083: real time      0.0083
    CHARGE:  cpu time      1.8223: real time      1.8314
    MIXING:  cpu time      0.0110: real time      0.0111
    --------------------------------------------
      LOOP:  cpu time     98.7106: real time     99.3437

 eigenvalue-minimisations  :  8944
 total energy-change (2. order) :-0.5696337E+01  (-0.5425407E+00)
 number of electron     792.0005200 magnetization       4.7301118
 augmentation part      505.9510501 magnetization       1.4721389

 Broyden mixing:
  rms(total) = 0.17196E+00    rms(broyden)= 0.17188E+00
  rms(prec ) = 0.18197E+00
  weight for this iteration     100.00

 eigenvalues of (default mixing * dielectric matrix)
  average eigenvalue GAMMA=   1.7906
 10.3209  3.1531  1.0292  1.0292  0.8640  0.8420  0.8420  0.6005  0.4006  0.3685
  0.2468

 Free energy of the ion-electron system (eV)
  ---------------------------------------------------
  alpha Z        PSCENC =      1885.03137702
  Ewald energy   TEWEN  =    369450.78347590
  -Hartree energ DENC   =   -465878.75991555
  -exchange      EXHF   =         0.00000000
  -V(xc)+E(xc)   XCENC  =      3211.44003156
  PAW double counting   =     93541.55881082  -101269.36562636
  entropy T*S    EENTRO =        -0.00290432
  eigenvalues    EBANDS =     -1334.66163986
  atomic energy  EATOM  =    100148.95009438
  Solvation  Ediel_sol  =         0.00000000
  ---------------------------------------------------
  free energy    TOTEN  =      -245.02629641 eV

  energy without entropy =     -245.02339208  energy(sigma->0) =     -245.02532830


--------------------------------------------------------------------------------------------------------




--------------------------------------- Iteration      1(  17)  ---------------------------------------


    POTLOK:  cpu time      0.1393: real time      0.1441
    SETDIJ:  cpu time      0.0400: real time      0.0402
     EDDAV:  cpu time     99.0737: real time     99.7420
       DOS:  cpu time      0.0072: real time      0.0072
    CHARGE:  cpu time      1.7951: real time      1.8045
    MIXING:  cpu time      0.0117: real time      0.0118
    --------------------------------------------
      LOOP:  cpu time    101.0670: real time    101.7497

 eigenvalue-minimisations  :  9232
 total energy-change (2. order) :-0.1857880E+01  (-0.1206546E+00)
 number of electron     792.0005199 magnetization       3.6037493
 augmentation part      505.9166299 magnetization       1.1890174

 Broyden mixing:
  rms(total) = 0.13466E+00    rms(broyden)= 0.13463E+00
  rms(prec ) = 0.14575E+00
  weight for this iteration     100.00

 eigenvalues of (default mixing * dielectric matrix)
  average eigenvalue GAMMA=   1.8359
 11.0174  3.8487  1.1977  1.1977  1.0035  0.8647  0.8647  0.6218  0.3655  0.3994
  0.3994  0.2503

 Free energy of the ion-electron system (eV)
  ---------------------------------------------------
  alpha Z        PSCENC =      1885.03137702
  Ewald energy   TEWEN  =    369450.78347590
  -Hartree energ DENC   =   -465837.93150237
  -exchange      EXHF   =         0.00000000
  -V(xc)+E(xc)   XCENC  =      3210.50742032
  PAW double counting   =     93467.78601285  -101194.52321276
  entropy T*S    EENTRO =        -0.01835591
  eigenvalues    EBANDS =     -1377.46948605
  atomic energy  EATOM  =    100148.95009438
  Solvation  Ediel_sol  =         0.00000000
  ---------------------------------------------------
  free energy    TOTEN  =      -246.88417662 eV

  energy without entropy =     -246.86582071  energy(sigma->0) =     -246.87805798


--------------------------------------------------------------------------------------------------------




--------------------------------------- Iteration      1(  18)  ---------------------------------------


    POTLOK:  cpu time      0.1395: real time      0.1443
    SETDIJ:  cpu time      0.0235: real time      0.0236
     EDDAV:  cpu time    120.0587: real time    121.2685
       DOS:  cpu time      0.0072: real time      0.0072
    CHARGE:  cpu time      1.7803: real time      1.7898
    MIXING:  cpu time      0.0120: real time      0.0120
    --------------------------------------------
      LOOP:  cpu time    122.0212: real time    123.2455

 eigenvalue-minimisations  : 11416
 total energy-change (2. order) :-0.1307301E+01  (-0.1217143E+00)
 number of electron     792.0005197 magnetization       3.1444189
 augmentation part      505.8056925 magnetization       1.9011217

 Broyden mixing:
  rms(total) = 0.98197E-01    rms(broyden)= 0.98143E-01
  rms(prec ) = 0.10395E+00
  weight for this iteration     100.00

 eigenvalues of (default mixing * dielectric matrix)
  average eigenvalue GAMMA=   1.8085
 11.5260  3.9560  1.7765  0.9598  0.9598  0.8103  0.8103  0.6694  0.6694  0.4019
  0.3676  0.3531  0.2502

 Free energy of the ion-electron system (eV)
  ---------------------------------------------------
  alpha Z        PSCENC =      1885.03137702
  Ewald energy   TEWEN  =    369450.78347590
  -Hartree energ DENC   =   -465756.47652498
  -exchange      EXHF   =         0.00000000
  -V(xc)+E(xc)   XCENC  =      3209.96504054
  PAW double counting   =     93405.60253541  -101135.58719625
  entropy T*S    EENTRO =        -0.04071238
  eigenvalues    EBANDS =     -1456.41956705
  atomic energy  EATOM  =    100148.95009438
  Solvation  Ediel_sol  =         0.00000000
  ---------------------------------------------------
  free energy    TOTEN  =      -248.19147741 eV

  energy without entropy =     -248.15076503  energy(sigma->0) =     -248.17790662


--------------------------------------------------------------------------------------------------------




--------------------------------------- Iteration      1(  19)  ---------------------------------------


    POTLOK:  cpu time      0.1534: real time      0.1583
    SETDIJ:  cpu time      0.0235: real time      0.0236
     EDDAV:  cpu time    102.2133: real time    102.8461
       DOS:  cpu time      0.0073: real time      0.0073
    CHARGE:  cpu time      1.8170: real time      1.8263
    MIXING:  cpu time      0.0223: real time      0.0224
    --------------------------------------------
      LOOP:  cpu time    104.2367: real time    104.8841

 eigenvalue-minimisations  :  9576
 total energy-change (2. order) :-0.7706624E+00  (-0.2842492E-01)
 number of electron     792.0005199 magnetization       2.1902922
 augmentation part      505.8583207 magnetization       1.2223178

 Broyden mixing:
  rms(total) = 0.86442E-01    rms(broyden)= 0.86430E-01
  rms(prec ) = 0.93988E-01
  weight for this iteration     100.00

 eigenvalues of (default mixing * dielectric matrix)
  average eigenvalue GAMMA=   1.8434
 11.9495  4.0991  2.3576  1.0425  1.0425  1.0175  0.8371  0.7483  0.7483  0.6085
[...]
  -------------------------------------------------------------------------------------
  Total     -42.59724   -45.93497   -11.75142     0.00000     0.00000     0.00000
  in kB     -33.93387   -36.59278    -9.36143     0.00000     0.00000     0.00000
  external pressure =      -26.63 kB  Pullay stress =        0.00 kB


 VOLUME and BASIS-vectors are now :
 -----------------------------------------------------------------------------
  energy-cutoff  :      400.00
  volume of cell :     2011.22
      direct lattice vectors                 reciprocal lattice vectors
    10.890000343  0.000000000  0.000000000     0.091827362  0.000000000  0.000000000
     0.000000000  7.700393200  0.000000000     0.000000000  0.129863498  0.000000000
     0.000000000  0.000000000 23.983791351     0.000000000  0.000000000  0.041694826

  length of vectors
    10.890000343  7.700393200 23.983791351     0.091827362  0.129863498  0.041694826


 FORCES acting on ions
    electron-ion (+dipol)            ewald-force                    non-local-force                 convergence-correction
 -----------------------------------------------------------------------------------------------
   -.543E-13 0.517E-13 0.455E+04   -.193E-06 -.175E-08 -.455E+04   -.265E-22 0.000E+00 -.545E+01   0.202E-09 0.388E-10 0.138E-01
   -.425E-13 -.377E-04 0.455E+04   -.193E-06 0.438E-06 -.455E+04   -.132E-21 0.511E-20 -.545E+01   0.208E-09 -.209E-08 0.138E-01
   -.400E-13 0.373E-04 0.455E+04   -.193E-06 -.359E-06 -.455E+04   -.159E-21 0.000E+00 -.545E+01   0.209E-09 0.206E-08 0.138E-01
   0.176E-05 0.618E-13 0.455E+04   0.285E-06 -.175E-08 -.455E+04   -.794E-22 0.000E+00 -.545E+01   -.430E-09 0.385E-10 0.138E-01
   0.176E-05 -.377E-04 0.455E+04   0.285E-06 0.438E-06 -.455E+04   0.298E-22 0.661E-20 -.545E+01   -.432E-09 -.209E-08 0.138E-01
   0.176E-05 0.373E-04 0.455E+04   0.285E-06 -.359E-06 -.455E+04   0.106E-21 0.000E+00 -.545E+01   -.432E-09 0.206E-08 0.138E-01
   -.541E-06 0.106E-12 0.455E+04   -.294E-06 -.175E-08 -.455E+04   0.132E-21 0.000E+00 -.545E+01   0.190E-09 0.333E-10 0.138E-01
   -.541E-06 -.377E-04 0.455E+04   -.294E-06 0.438E-06 -.455E+04   0.132E-21 0.136E-20 -.545E+01   0.185E-09 -.209E-08 0.138E-01
   -.541E-06 0.373E-04 0.455E+04   -.294E-06 -.359E-06 -.455E+04   0.529E-22 0.000E+00 -.545E+01   0.185E-09 0.206E-08 0.138E-01
   0.808E-06 0.392E-04 0.344E+04   0.181E-07 0.104E-06 -.344E+04   -.215E-22 0.000E+00 0.321E-02   0.110E-09 -.144E-08 -.409E-01
   0.808E-06 -.188E-06 0.344E+04   0.181E-07 0.308E-06 -.344E+04   -.199E-22 0.000E+00 0.321E-02   0.110E-09 -.156E-09 -.409E-01
   0.808E-06 -.433E-04 0.344E+04   0.181E-07 -.570E-06 -.344E+04   0.199E-22 0.657E-20 0.321E-02   0.110E-09 0.151E-08 -.409E-01
   0.242E-05 0.392E-04 0.344E+04   0.584E-06 0.104E-06 -.344E+04   0.662E-23 0.000E+00 0.321E-02   -.197E-09 -.144E-08 -.409E-01
   0.242E-05 -.188E-06 0.344E+04   0.584E-06 0.308E-06 -.344E+04   -.265E-22 0.000E+00 0.321E-02   -.199E-09 -.160E-09 -.409E-01
   0.242E-05 -.433E-04 0.344E+04   0.584E-06 -.570E-06 -.344E+04   0.463E-22 -.700E-20 0.321E-02   -.196E-09 0.151E-08 -.409E-01
   0.311E-06 0.392E-04 0.344E+04   -.194E-06 0.104E-06 -.344E+04   0.199E-22 0.000E+00 0.321E-02   0.248E-09 -.145E-08 -.409E-01
   0.311E-06 -.188E-06 0.344E+04   -.194E-06 0.308E-06 -.344E+04   0.397E-22 0.000E+00 0.321E-02   0.249E-09 -.162E-09 -.409E-01
   0.311E-06 -.433E-04 0.344E+04   -.194E-06 -.570E-06 -.344E+04   0.662E-23 -.786E-20 0.321E-02   0.247E-09 0.151E-08 -.409E-01
   -.631E-13 0.820E-13 0.205E+04   -.309E-06 -.134E-07 -.205E+04   0.157E-22 0.000E+00 -.486E+00   0.247E-09 0.202E-10 -.259E+00
   -.573E-13 -.476E-04 0.205E+04   -.309E-06 0.595E-06 -.205E+04   0.298E-22 -.982E-20 -.486E+00   0.249E-09 0.365E-08 -.259E+00
   -.618E-13 0.472E-04 0.205E+04   -.309E-06 -.420E-06 -.205E+04   0.000E+00 0.000E+00 -.486E+00   0.250E-09 -.383E-08 -.259E+00
   0.163E-05 0.790E-13 0.205E+04   0.379E-06 -.134E-07 -.205E+04   -.265E-22 0.000E+00 -.486E+00   0.542E-10 0.210E-10 -.259E+00
   0.163E-05 -.476E-04 0.205E+04   0.379E-06 0.595E-06 -.205E+04   0.199E-22 0.257E-20 -.486E+00   0.553E-10 0.365E-08 -.259E+00
   0.163E-05 0.472E-04 0.205E+04   0.379E-06 -.420E-06 -.205E+04   0.000E+00 0.000E+00 -.486E+00   0.549E-10 -.384E-08 -.259E+00
   -.502E-06 0.860E-13 0.205E+04   -.485E-06 -.134E-07 -.205E+04   0.265E-22 0.000E+00 -.486E+00   0.222E-09 0.218E-10 -.259E+00
   -.502E-06 -.476E-04 0.205E+04   -.485E-06 0.595E-06 -.205E+04   -.132E-22 -.131E-19 -.486E+00   0.220E-09 0.364E-08 -.259E+00
   -.502E-06 0.472E-04 0.205E+04   -.485E-06 -.420E-06 -.205E+04   -.132E-22 0.000E+00 -.486E+00   0.219E-09 -.383E-08 -.259E+00
   0.817E-06 0.369E-04 0.691E+03   0.997E-08 0.121E-06 -.691E+03   0.000E+00 0.000E+00 0.307E+00   -.115E-09 -.113E-07 -.249E+00
   0.817E-06 -.189E-06 0.691E+03   0.997E-08 0.358E-06 -.691E+03   -.529E-22 0.000E+00 0.307E+00   -.115E-09 -.617E-11 -.249E+00
   0.817E-06 -.411E-04 0.691E+03   0.997E-08 -.638E-06 -.691E+03   0.000E+00 -.347E-20 0.307E+00   -.116E-09 0.113E-07 -.249E+00
   0.245E-05 0.369E-04 0.691E+03   0.654E-06 0.121E-06 -.691E+03   0.331E-22 0.000E+00 0.307E+00   -.165E-09 -.113E-07 -.249E+00
   0.245E-05 -.189E-06 0.691E+03   0.654E-06 0.358E-06 -.691E+03   0.529E-22 0.000E+00 0.307E+00   -.163E-09 -.426E-11 -.249E+00
   0.245E-05 -.411E-04 0.691E+03   0.654E-06 -.638E-06 -.691E+03   0.596E-22 -.168E-20 0.307E+00   -.165E-09 0.113E-07 -.249E+00
   0.314E-06 0.369E-04 0.691E+03   -.250E-06 0.121E-06 -.691E+03   -.269E-22 0.000E+00 0.307E+00   0.107E-09 -.113E-07 -.249E+00
   0.314E-06 -.189E-06 0.691E+03   -.250E-06 0.358E-06 -.691E+03   -.778E-22 0.000E+00 0.307E+00   0.105E-09 -.155E-11 -.249E+00
   0.314E-06 -.411E-04 0.691E+03   -.250E-06 -.638E-06 -.691E+03   -.265E-22 -.327E-20 0.307E+00   0.107E-09 0.113E-07 -.249E+00
   -.626E-13 0.776E-13 -.687E+03   -.326E-06 -.248E-07 0.687E+03   0.000E+00 0.000E+00 -.247E+00   -.136E-09 0.997E-10 -.102E+00
   -.668E-13 -.469E-04 -.687E+03   -.326E-06 0.608E-06 0.687E+03   0.132E-22 -.850E-20 -.247E+00   -.136E-09 -.410E-08 -.102E+00
   -.664E-13 0.465E-04 -.687E+03   -.326E-06 -.420E-06 0.687E+03   0.132E-22 0.000E+00 -.247E+00   -.137E-09 0.426E-08 -.102E+00
   0.163E-05 0.830E-13 -.687E+03   0.389E-06 -.248E-07 0.687E+03   -.596E-22 0.000E+00 -.247E+00   -.306E-09 0.101E-09 -.102E+00
   0.163E-05 -.469E-04 -.687E+03   0.389E-06 0.608E-06 0.687E+03   -.993E-23 -.134E-20 -.247E+00   -.304E-09 -.410E-08 -.102E+00
   0.163E-05 0.465E-04 -.687E+03   0.389E-06 -.420E-06 0.687E+03   -.662E-23 0.000E+00 -.247E+00   -.305E-09 0.426E-08 -.102E+00
   -.501E-06 0.830E-13 -.687E+03   -.485E-06 -.248E-07 0.687E+03   -.265E-22 0.000E+00 -.247E+00   -.352E-09 0.100E-09 -.102E+00
   -.501E-06 -.469E-04 -.687E+03   -.485E-06 0.608E-06 0.687E+03   -.728E-22 -.327E-20 -.247E+00   -.354E-09 -.410E-08 -.102E+00
   -.501E-06 0.465E-04 -.687E+03   -.485E-06 -.420E-06 0.687E+03   -.265E-22 0.000E+00 -.247E+00   -.353E-09 0.426E-08 -.102E+00
   0.822E-06 0.360E-04 -.202E+04   -.550E-09 0.110E-06 0.201E+04   0.331E-23 0.000E+00 0.748E+00   0.166E-09 0.125E-08 -.147E-01
   0.822E-06 -.189E-06 -.202E+04   -.550E-09 0.361E-06 0.201E+04   -.132E-22 0.000E+00 0.748E+00   0.167E-09 -.522E-10 -.147E-01
   0.822E-06 -.401E-04 -.202E+04   -.550E-09 -.627E-06 0.201E+04   0.397E-22 -.704E-21 0.748E+00   0.165E-09 -.109E-08 -.147E-01
   0.246E-05 0.360E-04 -.202E+04   0.644E-06 0.110E-06 0.201E+04   -.579E-23 0.000E+00 0.748E+00   -.747E-12 0.126E-08 -.147E-01
   0.246E-05 -.189E-06 -.202E+04   0.644E-06 0.361E-06 0.201E+04   0.529E-22 0.000E+00 0.748E+00   -.387E-12 -.556E-10 -.147E-01
   0.246E-05 -.401E-04 -.202E+04   0.644E-06 -.627E-06 0.201E+04   0.662E-23 -.113E-20 0.748E+00   0.578E-12 -.109E-08 -.147E-01
   0.316E-06 0.360E-04 -.202E+04   -.238E-06 0.110E-06 0.201E+04   0.000E+00 0.000E+00 0.748E+00   -.145E-09 0.125E-08 -.147E-01
   0.316E-06 -.189E-06 -.202E+04   -.238E-06 0.361E-06 0.201E+04   -.132E-22 0.000E+00 0.748E+00   -.145E-09 -.532E-10 -.147E-01
   0.316E-06 -.401E-04 -.202E+04   -.238E-06 -.627E-06 0.201E+04   -.130E-22 -.388E-20 0.748E+00   -.145E-09 -.109E-08 -.147E-01
   -.620E-13 0.766E-13 -.347E+04   -.293E-06 -.153E-07 0.347E+04   0.265E-22 0.000E+00 -.678E+00   0.968E-10 -.164E-09 -.314E+00
   -.698E-13 -.401E-04 -.347E+04   -.293E-06 0.547E-06 0.347E+04   0.265E-22 0.108E-19 -.678E+00   0.972E-10 -.316E-08 -.314E+00
   -.682E-13 0.397E-04 -.347E+04   -.293E-06 -.364E-06 0.347E+04   0.185E-21 0.000E+00 -.678E+00   0.965E-10 0.290E-08 -.314E+00
   0.160E-05 0.738E-13 -.347E+04   0.318E-06 -.153E-07 0.347E+04   0.926E-22 0.000E+00 -.678E+00   0.729E-09 -.163E-09 -.314E+00
   0.160E-05 -.401E-04 -.347E+04   0.318E-06 0.547E-06 0.347E+04   0.794E-22 -.867E-21 -.678E+00   0.732E-09 -.316E-08 -.314E+00
   0.160E-05 0.397E-04 -.347E+04   0.318E-06 -.364E-06 0.347E+04   0.463E-22 0.000E+00 -.678E+00   0.730E-09 0.290E-08 -.314E+00
   -.492E-06 0.108E-12 -.347E+04   -.452E-06 -.153E-07 0.347E+04   0.106E-21 0.000E+00 -.678E+00   0.434E-09 -.165E-09 -.314E+00
   -.492E-06 -.401E-04 -.347E+04   -.452E-06 0.547E-06 0.347E+04   0.132E-21 -.914E-20 -.678E+00   0.431E-09 -.316E-08 -.314E+00
   -.492E-06 0.397E-04 -.347E+04   -.452E-06 -.364E-06 0.347E+04   -.794E-22 0.000E+00 -.678E+00   0.433E-09 0.290E-08 -.314E+00
   0.869E-06 0.450E-04 -.456E+04   -.146E-07 0.735E-07 0.455E+04   -.132E-22 0.000E+00 0.564E+01   -.195E-09 0.135E-07 -.313E+00
   0.869E-06 -.192E-06 -.456E+04   -.146E-07 0.316E-06 0.455E+04   0.629E-22 0.000E+00 0.564E+01   -.193E-09 0.233E-10 -.313E+00
   0.869E-06 -.493E-04 -.456E+04   -.146E-07 -.484E-06 0.455E+04   0.662E-22 0.118E-19 0.564E+01   -.195E-09 -.131E-07 -.313E+00
   0.261E-05 0.450E-04 -.456E+04   0.441E-06 0.735E-07 0.455E+04   -.794E-22 0.000E+00 0.564E+01   -.221E-09 0.135E-07 -.313E+00
   0.261E-05 -.192E-06 -.456E+04   0.441E-06 0.316E-06 0.455E+04   0.265E-22 0.000E+00 0.564E+01   -.223E-09 0.248E-10 -.313E+00
   0.261E-05 -.493E-04 -.456E+04   0.441E-06 -.484E-06 0.455E+04   0.000E+00 0.256E-20 0.564E+01   -.221E-09 -.131E-07 -.313E+00
   0.334E-06 0.450E-04 -.456E+04   -.189E-06 0.735E-07 0.455E+04   0.199E-22 0.000E+00 0.564E+01   -.189E-09 0.135E-07 -.313E+00
   0.334E-06 -.192E-06 -.456E+04   -.189E-06 0.316E-06 0.455E+04   -.596E-22 0.000E+00 0.564E+01   -.189E-09 0.253E-10 -.313E+00
   0.334E-06 -.493E-04 -.456E+04   -.189E-06 -.484E-06 0.455E+04   0.132E-22 -.109E-19 0.564E+01   -.189E-09 -.131E-07 -.313E+00
 -----------------------------------------------------------------------------------------------
   0.574E-04 -.569E-04 0.132E+02   -.126E-12 -.110E-12 -.218E-10   0.662E-21 -.386E-19 -.146E+01   0.106E-08 0.229E-09 -.115E+02
 
 
 POSITION                                       TOTAL-FORCE (eV/Angst)
 -----------------------------------------------------------------------------------
      0.00000      0.00000      0.00000        -0.000000     -0.000000      0.454692
      0.00000      2.56680      0.00000        -0.000000      0.000000      0.454692
      0.00000      5.13360      0.00000        -0.000000     -0.000000      0.454692
      3.63000      0.00000      0.00000         0.000000     -0.000000      0.454692
      3.63000      2.56680      0.00000        -0.000000     -0.000000      0.454692
      3.63000      5.13360      0.00000         0.000000     -0.000000      0.454692
      7.26000      0.00000      0.00000         0.000000     -0.000000      0.454692
      7.26000      2.56680      0.00000        -0.000000      0.000000      0.454692
      7.26000      5.13360      0.00000        -0.000000     -0.000000      0.454692
      1.81500      1.28340      1.28340         0.000000     -0.000000     -0.420568
      1.81500      3.85020      1.28340         0.000000     -0.000000     -0.420568
      1.81500      6.41699      1.28340        -0.000000      0.000000     -0.420568
      5.44500      1.28340      1.28340        -0.000000     -0.000000     -0.420568
      5.44500      3.85020      1.28340         0.000000     -0.000000     -0.420568
      5.44500      6.41699      1.28340         0.000000     -0.000000     -0.420568
      9.07500      1.28340      1.28340        -0.000000     -0.000000     -0.420568
      9.07500      3.85020      1.28340         0.000000     -0.000000     -0.420568
      9.07500      6.41699      1.28340         0.000000      0.000000     -0.420568
      0.00000      0.00000      2.53666        -0.000000     -0.000000      0.011582
      0.00000      2.56680      2.53666        -0.000000      0.000000      0.011582
      0.00000      5.13360      2.53666        -0.000000     -0.000000      0.011582
      3.63000      0.00000      2.53666        -0.000000     -0.000000      0.011582
      3.63000      2.56680      2.53666        -0.000000      0.000000      0.011582
      3.63000      5.13360      2.53666        -0.000000     -0.000000      0.011582
      7.26000      0.00000      2.53666         0.000000     -0.000000      0.011582
      7.26000      2.56680      2.53666         0.000000      0.000000      0.011582
      7.26000      5.13360      2.53666         0.000000     -0.000000      0.011582
      1.81500      1.28340      3.79249        -0.000000     -0.000000      0.015759
      1.81500      3.85020      3.79249         0.000000     -0.000000      0.015759
      1.81500      6.41699      3.79249        -0.000000      0.000000      0.015759
      5.44500      1.28340      3.79249         0.000000      0.000000      0.015759
      5.44500      3.85020      3.79249         0.000000     -0.000000      0.015759
      5.44500      6.41699      3.79249        -0.000000     -0.000000      0.015759
      9.07500      1.28340      3.79249         0.000000     -0.000000      0.015759
      9.07500      3.85020      3.79249         0.000000     -0.000000      0.015759
      9.07500      6.41699      3.79249        -0.000000     -0.000000      0.015759
     -0.00000      0.00000      5.06188        -0.000000     -0.000000     -0.013932
     -0.00000      2.56680      5.06188        -0.000000      0.000000     -0.013932
      0.00000      5.13360      5.06188         0.000000     -0.000000     -0.013932
      3.63000      0.00000      5.06188        -0.000000     -0.000000     -0.013932
      3.63000      2.56680      5.06188         0.000000      0.000000     -0.013932
      3.63000      5.13360      5.06188        -0.000000     -0.000000     -0.013932
      7.26000      0.00000      5.06188        -0.000000     -0.000000     -0.013932
      7.26000      2.56680      5.06188         0.000000     -0.000000     -0.013932
      7.26000      5.13360      5.06188        -0.000000     -0.000000     -0.013932
      1.81500      1.28340      6.29530         0.000000     -0.000000     -0.021438
      1.81500      3.85020      6.29530        -0.000000     -0.000000     -0.021438
      1.81500      6.41699      6.29530        -0.000000     -0.000000     -0.021438
      5.44500      1.28340      6.29530         0.000000     -0.000000     -0.021438
      5.44500      3.85020      6.29530         0.000000     -0.000000     -0.021438
      5.44500      6.41699      6.29530         0.000000      0.000000     -0.021438
      9.07500      1.28340      6.29530        -0.000000     -0.000000     -0.021438
      9.07500      3.85020      6.29530         0.000000     -0.000000     -0.021438
      9.07500      6.41699      6.29530        -0.000000     -0.000000     -0.021438
      0.00000      0.00000      7.61385        -0.000000     -0.000000     -0.009814
     -0.00000      2.56680      7.61385        -0.000000     -0.000000     -0.009814
      0.00000      5.13360      7.61385         0.000000     -0.000000     -0.009814
      3.63000      0.00000      7.61385        -0.000000     -0.000000     -0.009814
      3.63000      2.56680      7.61385         0.000000      0.000000     -0.009814
      3.63000      5.13360      7.61385        -0.000000     -0.000000     -0.009814
      7.26000     -0.00000      7.61385         0.000000     -0.000000     -0.009814
      7.26000      2.56680      7.61385         0.000000      0.000000     -0.009814
      7.26000      5.13360      7.61385        -0.000000     -0.000000     -0.009814
      1.81500      1.28340      8.76046         0.000000     -0.000000     -0.016281
      1.81500      3.85020      8.76046         0.000000     -0.000000     -0.016281
      1.81500      6.41699      8.76046        -0.000000     -0.000000     -0.016281
      5.44500      1.28340      8.76046         0.000000     -0.000000     -0.016281
      5.44500      3.85020      8.76046        -0.000000     -0.000000     -0.016281
      5.44500      6.41699      8.76046        -0.000000      0.000000     -0.016281
      9.07500      1.28340      8.76046        -0.000000     -0.000000     -0.016281
      9.07500      3.85020      8.76046        -0.000000     -0.000000     -0.016281
      9.07500      6.41699      8.76046        -0.000000      0.000000     -0.016281
 -----------------------------------------------------------------------------------
    total drift:                                0.000057     -0.000057      0.193162


--------------------------------------------------------------------------------------------------------



  FREE ENERGIE OF THE ION-ELECTRON SYSTEM (eV)
  ---------------------------------------------------
  free  energy   TOTEN  =      -279.38940254 eV

  energy  without entropy=     -279.32886606  energy(sigma->0) =     -279.36922371
 
 d Force = 0.2252073E-02[-0.161E-04, 0.452E-02]  d Energy = 0.2676147E-02-0.424E-03
 d Force =-0.2323326E+03[-0.232E+03,-0.232E+03]  d Ewald  =-0.2323326E+03 0.166E-05


--------------------------------------------------------------------------------------------------------


    POTLOK:  cpu time      0.1622: real time      0.1632


--------------------------------------------------------------------------------------------------------


 stress matrix after NEB project (eV)
    -42.59724      0.00000      0.00000
      0.00000    -45.93497      0.00000
      0.00000      0.00000    -11.75142
  FORCES: max atom, RMS     0.021438    0.013217
  FORCE total and by dimension    0.112152    0.021438
  Stress total and by dimension   63.738857   45.934970
 Conjugate gradient step on ions:
 trial-energy change:   -0.002676  1 .order   -0.002252   -0.004520    0.000016
  (g-gl).g = 0.162E-02      g.g   = 0.185E-02  gl.gl    = 0.155E-01
 g(Force)  = 0.185E-02   g(Stress)= 0.000E+00 ortho     = 0.360E-03
 gamma     =   0.10431
 trial     =   2.39456
 opt step  =   2.38606  (harmonic =   2.38606) maximal distance =0.00211944
 next E    =  -279.388978   (d E  =  -0.00225)


--------------------------------------------------------------------------------------------------------


  
 reached required accuracy - stopping structural energy minimisation
     LOOP+:  cpu time    594.4010: real time    599.0015
    4ORBIT:  cpu time      0.0000: real time      0.0000

 total amount of memory used by VASP MPI-rank0   185356. kBytes
=======================================================================

   base      :      30000. kBytes
   nonl-proj :      12635. kBytes
   fftplans  :       5413. kBytes
   grid      :      12586. kBytes
   one-center:        466. kBytes
   wavefun   :     124256. kBytes
 
  
  
 General timing and accounting informations for this job:
 ========================================================
  
                  Total CPU time used (sec):    20022.346
                            User time (sec):    19801.658
                          System time (sec):      220.689
                         Elapsed time (sec):    20182.575
  
                   Maximum memory used (kb):      463140.
                   Average memory used (kb):          N/A
  
                          Minor page faults:     12524147
                          Major page faults:         5885
                 Voluntary context switches:       201614
