<?xml version="1.0" encoding="ISO-8859-1"?>
<modeling>
 <generator>
  <i name="program" type="string">vasp </i>
  <i name="version" type="string">6.3.2  </i>
  <i name="subversion" type="string">27Jun22 (build Aug 17 2022 15:43:34) complex                          parallel </i>
  <i name="platform" type="string">tv2STDVTST </i>
  <i name="date" type="string">2025 01 23 </i>
  <i name="time" type="string">12:35:49 </i>
 </generator>
 <incar>
  <i type="int" name="ISTART">     0</i>
  <i type="string" name="PREC">Normal</i>
  <i type="int" name="ISPIN">     2</i>
  <i type="int" name="ICHARG">     2</i>
  <i type="int" name="IBRION">     2</i>
  <i name="EDIFF">      0.00020000</i>
  <i name="EDIFFG">     -0.03000000</i>
  <i type="int" name="NSW">   800</i>
  <i type="int" name="ISIF">     2</i>
  <i type="int" name="ISYM">     1</i>
  <i name="ENCUT">    400.00000000</i>
  <i name="POTIM">      0.50000000</i>
  <i type="logical" name="LREAL"> F  </i>
  <i type="int" name="ISMEAR">     1</i>
  <i name="SIGMA">      0.20000000</i>
  <i type="logical" name="LWAVE"> F  </i>
  <i type="logical" name="LCHARG"> F  </i>
  <i type="string" name="GGA">PE</i>
  <i type="int" name="IDIPOL">     3</i>
  <i type="int" name="IVDW">    11</i>
 </incar>
 <primitive_cell>
  <structure name="primitive_cell" >
   <crystal>
    <varray name="basis" >
     <v>       0.00000000      -2.56679773       0.00000000 </v>
     <v>       3.63000011       0.00000000       0.00000000 </v>
     <v>       0.00000000       0.00000000      23.98379135 </v>
    </varray>
    <i name="volume">    223.46840183 </i>
    <varray name="rec_basis" >
     <v>       0.00000000      -0.38959050       0.00000000 </v>
     <v>       0.27548209       0.00000000       0.00000000 </v>
     <v>       0.00000000       0.00000000       0.04169483 </v>
    </varray>
   </crystal>
   <varray name="positions" >
    <v>       0.00000000       0.00000000       0.00000000 </v>
    <v>       0.50000000       0.50000000       0.05351109 </v>
    <v>       0.00000000       0.00000000       0.10702218 </v>
    <v>       0.50000000       0.50000000       0.16053327 </v>
    <v>       0.00000000       0.00000000       0.21404436 </v>
    <v>       0.50000000       0.50000000       0.26755545 </v>
    <v>       0.00000000       0.00000000       0.32106654 </v>
    <v>       0.50000000       0.50000000       0.37457763 </v>
   </varray>
  </structure>
  <varray name="primitive_index" >
   <v type="int" >        1 </v>
   <v type="int" >       12 </v>
   <v type="int" >       19 </v>
   <v type="int" >       30 </v>
   <v type="int" >       37 </v>
   <v type="int" >       48 </v>
   <v type="int" >       55 </v>
   <v type="int" >       66 </v>
  </varray>
 </primitive_cell>
 <kpoints>
  <generation param="Monkhorst-Pack">
   <v type="int" name="divisions">       3        3        1 </v>
   <v name="usershift">      0.00000000       0.00000000       0.00000000 </v>
   <v name="genvec1">      0.33333333       0.00000000       0.00000000 </v>
   <v name="genvec2">      0.00000000       0.33333333       0.00000000 </v>
   <v name="genvec3">      0.00000000       0.00000000       1.00000000 </v>
   <v name="shift">      0.00000000       0.00000000       0.00000000 </v>
  </generation>
  <varray name="kpointlist" >
   <v>       0.00000000       0.00000000       0.00000000 </v>
   <v>       0.33333333       0.00000000       0.00000000 </v>
   <v>       0.00000000       0.33333333       0.00000000 </v>
   <v>       0.33333333       0.33333333       0.00000000 </v>
  </varray>
  <varray name="weights" >
   <v>       0.11111111 </v>
   <v>       0.22222222 </v>
   <v>       0.22222222 </v>
   <v>       0.44444444 </v>
  </varray>
 </kpoints>
 <parameters>
  <separator name="general" >
   <i type="string" name="SYSTEM">unknown system</i>
   <i type="logical" name="LCOMPAT"> F  </i>
  </separator>
  <separator name="electronic" >
   <i type="string" name="PREC">normal</i>
   <i name="ENMAX">    400.00000000</i>
   <i name="ENAUG">    586.98000000</i>
   <i name="EDIFF">      0.00020000</i>
   <i type="int" name="IALGO">    38</i>
   <i type="int" name="IWAVPR">    11</i>
   <i type="int" name="NBANDS">   512</i>
   <i type="int" name="NBANDSLOW">    -1</i>
   <i type="int" name="NBANDSHIGH">    -1</i>
   <i name="NELECT">    792.00000000</i>
   <i type="int" name="TURBO">     0</i>
   <i type="int" name="IRESTART">     0</i>
   <i type="int" name="NREBOOT">     0</i>
   <i type="int" name="NMIN">     0</i>
   <i name="EREF">      0.00000000</i>
   <separator name="electronic smearing" >
    <i type="int" name="ISMEAR">     1</i>
    <i name="SIGMA">      0.20000000</i>
    <i name="KSPACING">      0.50000000</i>
    <i type="logical" name="KGAMMA"> T  </i>
    <i type="logical" name="KBLOWUP"> T  </i>
   </separator>
   <separator name="electronic projectors" >
    <i type="logical" name="LREAL"> F  </i>
    <v name="ROPT">      0.00000000</v>
    <i type="int" name="LMAXPAW">  -100</i>
    <i type="int" name="LMAXMIX">     2</i>
    <i type="logical" name="NLSPLINE"> F  </i>
   </separator>
   <separator name="electronic startup" >
    <i type="int" name="ISTART">     0</i>
    <i type="int" name="ICHARG">     2</i>
    <i type="int" name="INIWAV">     1</i>
   </separator>
   <separator name="electronic spin" >
    <i type="int" name="ISPIN">     2</i>
    <i type="logical" name="LNONCOLLINEAR"> F  </i>
    <v name="MAGMOM">      1.00000000      1.00000000      1.00000000      1.00000000      1.00000000      1.00000000      1.00000000      1.00000000      1.00000000      1.00000000      1.00000000      1.00000000      1.00000000      1.00000000      1.00000000      1.00000000      1.00000000      1.00000000      1.00000000      1.00000000
      1.00000000      1.00000000      1.00000000      1.00000000      1.00000000      1.00000000      1.00000000      1.00000000      1.00000000      1.00000000      1.00000000      1.00000000      1.00000000      1.00000000      1.00000000      1.00000000      1.00000000      1.00000000      1.00000000      1.00000000
      1.00000000      1.00000000      1.00000000      1.00000000      1.00000000      1.00000000      1.00000000      1.00000000      1.00000000      1.00000000      1.00000000      1.00000000      1.00000000      1.00000000      1.00000000      1.00000000      1.00000000      1.00000000      1.00000000      1.00000000
      1.00000000      1.00000000      1.00000000      1.00000000      1.00000000      1.00000000      1.00000000      1.00000000      1.00000000      1.00000000      1.00000000      1.00000000</v>
    <i name="NUPDOWN">     -1.00000000</i>
    <i type="logical" name="LSORBIT"> F  </i>
    <v name="SAXIS">      0.00000000      0.00000000      1.00000000</v>
    <i type="logical" name="LSPIRAL"> F  </i>
    <v name="QSPIRAL">      0.00000000      0.00000000      0.00000000</v>
    <i type="logical" name="LZEROZ"> F  </i>
   </separator>
   <separator name="electronic exchange-correlation" >
    <i type="logical" name="LASPH"> F  </i>
    <i type="logical" name="LMETAGGA"> F  </i>
   </separator>
   <separator name="electronic convergence" >
    <i type="int" name="NELM">    60</i>
    <i type="int" name="NELMDL">    -5</i>
    <i type="int" name="NELMIN">     2</i>
    <i name="ENINI">    400.00000000</i>
    <separator name="electronic convergence detail" >
     <i type="logical" name="LDIAG"> T  </i>
     <i type="logical" name="LSUBROT"> F  </i>
     <i name="WEIMIN">      0.00100000</i>
     <i name="EBREAK">      0.00000010</i>
     <i name="DEPER">      0.30000000</i>
     <i type="int" name="NRMM">     4</i>
     <i name="TIME">      0.40000000</i>
    </separator>
   </separator>
   <separator name="electronic mixer" >
    <i name="AMIX">      0.40000000</i>
    <i name="BMIX">      1.00000000</i>
    <i name="AMIN">      0.10000000</i>
    <i name="AMIX_MAG">      1.60000000</i>
    <i name="BMIX_MAG">      1.00000000</i>
    <separator name="electronic mixer details" >
     <i type="int" name="IMIX">     4</i>
     <i type="logical" name="MIXFIRST"> F  </i>
     <i type="int" name="MAXMIX">   -45</i>
     <i name="WC">    100.00000000</i>
     <i type="int" name="INIMIX">     1</i>
     <i type="int" name="MIXPRE">     1</i>
     <i type="int" name="MREMOVE">     5</i>
    </separator>
   </separator>
   <separator name="electronic dipolcorrection" >
    <i type="logical" name="LDIPOL"> F  </i>
    <i type="logical" name="LMONO"> F  </i>
    <i type="int" name="IDIPOL">     3</i>
    <i name="EPSILON">      1.00000000</i>
    <v name="DIPOL">   -100.00000000   -100.00000000   -100.00000000</v>
    <i name="EFIELD">      0.00000000</i>
   </separator>
  </separator>
  <separator name="grids" >
   <i type="int" name="NGX">    54</i>
   <i type="int" name="NGY">    40</i>
   <i type="int" name="NGZ">   120</i>
   <i type="int" name="NGXF">   108</i>
   <i type="int" name="NGYF">    80</i>
   <i type="int" name="NGZF">   240</i>
   <i type="logical" name="ADDGRID"> F  </i>
  </separator>
  <separator name="ionic" >
   <i type="int" name="NSW">   800</i>
   <i type="int" name="IBRION">     2</i>
   <i type="int" name="MDALGO">     0</i>
   <i type="int" name="ISIF">     2</i>
   <i name="PSTRESS">      0.00000000</i>
   <i name="EDIFFG">     -0.03000000</i>
   <i type="int" name="NFREE">     1</i>
   <i name="POTIM">      0.50000000</i>
   <i name="SMASS">     -3.00000000</i>
   <i name="SCALEE">      1.00000000</i>
  </separator>
  <separator name="ionic md" >
   <i name="TEBEG">      0.00010000</i>
   <i name="TEEND">      0.00010000</i>
   <i type="int" name="NBLOCK">     1</i>
   <i type="int" name="KBLOCK">   800</i>
   <i type="int" name="NPACO">   256</i>
   <i name="APACO">     10.00000000</i>
  </separator>
  <separator name="symmetry" >
   <i type="int" name="ISYM">     1</i>
   <i name="SYMPREC">      0.00001000</i>
  </separator>
  <separator name="dos" >
   <i type="int" name="LORBIT">     0</i>
   <v name="RWIGS">     -1.00000000</v>
   <i type="int" name="NEDOS">   301</i>
   <i name="EMIN">     10.00000000</i>
   <i name="EMAX">    -10.00000000</i>
   <i name="EFERMI">      0.00000000</i>
  </separator>
  <separator name="writing" >
   <i type="int" name="NWRITE">     2</i>
   <i type="logical" name="LWAVE"> F  </i>
   <i type="logical" name="LDOWNSAMPLE"> F  </i>
   <i type="logical" name="LCHARG"> F  </i>
   <i type="logical" name="LPARD"> F  </i>
   <i type="logical" name="LVTOT"> F  </i>
   <i type="logical" name="LVHAR"> F  </i>
   <i type="logical" name="LELF"> F  </i>
   <i type="logical" name="LOPTICS"> F  </i>
   <v name="STM">      0.00000000      0.00000000      0.00000000      0.00000000      0.00000000      0.00000000      0.00000000</v>
  </separator>
  <separator name="performance" >
   <i type="int" name="NPAR">     4</i>
   <i type="int" name="NSIM">     4</i>
   <i type="int" name="NBLK">    -1</i>
   <i type="logical" name="LPLANE"> T  </i>
   <i type="logical" name="LSCALAPACK"> T  </i>
   <i type="logical" name="LSCAAWARE"> F  </i>
   <i type="logical" name="LSCALU"> F  </i>
   <i type="logical" name="LASYNC"> F  </i>
   <i type="logical" name="LORBITALREAL"> F  </i>
  </separator>
  <separator name="miscellaneous" >
   <i type="int" name="IDIOT">     3</i>
   <i type="int" name="PHON_NSTRUCT">    -1</i>
   <i type="logical" name="LMUSIC"> F  </i>
   <v name="POMASS">     63.54600000</v>
   <v name="DARWINR">      0.00000000</v>
   <v name="DARWINV">      1.00000000</v>
   <i type="logical" name="LCORR"> T  </i>
  </separator>
  <i type="logical" name="GGA_COMPAT"> T  </i>
  <i type="logical" name="LBERRY"> F  </i>
  <i type="int" name="ICORELEVEL">     0</i>
  <i type="logical" name="LDAU"> F  </i>
  <i type="int" name="I_CONSTRAINED_M">     0</i>
  <separator name="electronic exchange-correlation" >
   <i type="string" name="GGA">PE</i>
   <i type="int" name="VOSKOWN">     0</i>
   <i type="logical" name="LHFCALC"> F  </i>
   <i type="string" name="PRECFOCK"></i>
   <i type="logical" name="LSYMGRAD"> F  </i>
   <i type="logical" name="LHFONE"> F  </i>
   <i type="logical" name="LRHFCALC"> F  </i>
   <i type="logical" name="LTHOMAS"> F  </i>
   <i type="logical" name="LMODELHF"> F  </i>
   <i type="logical" name="LFOCKACE"> F  </i>
   <i name="ENCUT4O">     -1.00000000</i>
   <i type="int" name="EXXOEP">     0</i>
   <i type="int" name="FOURORBIT">     0</i>
   <i name="AEXX">      0.00000000</i>
   <i name="HFALPHA">      0.00000000</i>
   <i name="MCALPHA">      0.00000000</i>
   <i name="ALDAX">      1.00000000</i>
   <i name="AGGAX">      1.00000000</i>
   <i name="ALDAC">      1.00000000</i>
   <i name="AGGAC">      1.00000000</i>
   <i type="int" name="NKREDX">     1</i>
   <i type="int" name="NKREDY">     1</i>
   <i type="int" name="NKREDZ">     1</i>
   <i type="logical" name="SHIFTRED"> F  </i>
   <i type="logical" name="ODDONLY"> F  </i>
   <i type="logical" name="EVENONLY"> F  </i>
   <i type="int" name="LMAXFOCK">     0</i>
   <i type="int" name="NMAXFOCKAE">     0</i>
   <i type="logical" name="LFOCKAEDFT"> F  </i>
   <i name="HFSCREEN">      0.00000000</i>
   <i name="HFSCREENC">      0.00000000</i>
   <i type="int" name="NBANDSGWLOW">     0</i>
  </separator>
  <separator name="vdW DFT" >
   <i type="logical" name="LUSE_VDW"> F  </i>
   <i name="Zab_VDW">     -0.84910000</i>
   <i name="PARAM1">      0.12340000</i>
   <i name="PARAM2">      1.00000000</i>
   <i name="PARAM3">      0.00000000</i>
  </separator>
  <separator name="model GW" >
   <i type="int" name="MODEL_GW">     0</i>
   <i name="MODEL_EPS0">     16.76013014</i>
   <i name="MODEL_ALPHA">      1.00000000</i>
  </separator>
  <separator name="linear response parameters" >
   <i type="logical" name="LEPSILON"> F  </i>
   <i type="logical" name="LRPA"> F  </i>
   <i type="logical" name="LNABLA"> F  </i>
   <i type="logical" name="LVEL"> F  </i>
   <i name="CSHIFT">      0.10000000</i>
   <i name="OMEGAMAX">     -1.00000000</i>
   <i name="DEG_THRESHOLD">      0.00200000</i>
   <i name="RTIME">     -0.10000000</i>
   <i name="WPLASMAI">      0.00000000</i>
   <v name="DFIELD">      0.00000000      0.00000000      0.00000000</v>
   <v name="WPLASMA">      0.00000000      0.00000000      0.00000000      0.00000000      0.00000000      0.00000000      0.00000000      0.00000000      0.00000000</v>
  </separator>
  <separator name="orbital magnetization" >
   <i type="logical" name="NUCIND"> F  </i>
   <v name="MAGPOS">      0.00000000      0.00000000      0.00000000</v>
   <i type="logical" name="LNICSALL"> T  </i>
   <i type="logical" name="ORBITALMAG"> F  </i>
   <i type="logical" name="LMAGBLOCH"> F  </i>
   <i type="logical" name="LCHIMAG"> F  </i>
   <i type="logical" name="LGAUGE"> T  </i>
   <i type="int" name="MAGATOM">     0</i>
   <v name="MAGDIPOL">      0.00000000      0.00000000      0.00000000</v>
   <v name="AVECCONST">      0.00000000      0.00000000      0.00000000</v>
  </separator>
  <separator name="response functions" >
   <i type="logical" name="LFINITE_TEMPERATURE"> F  </i>
   <i type="logical" name="LADDER"> F  </i>
   <i type="logical" name="LRPAFORCE"> F  </i>
   <i type="logical" name="LFXC"> F  </i>
   <i type="logical" name="LHARTREE"> T  </i>
   <i type="int" name="IBSE">     0</i>
   <v type="int" name="KPOINT">    -1     0     0     0</v>
   <i type="logical" name="LTCTC"> F  </i>
   <i type="logical" name="LTCTE"> F  </i>
   <i type="logical" name="LTETE"> F  </i>
   <i type="logical" name="LTRIPLET"> F  </i>
   <i type="logical" name="LFXCEPS"> F  </i>
   <i type="logical" name="LFXHEG"> F  </i>
   <i type="int" name="NATURALO">     2</i>
   <i type="logical" name="LHOLEGF"> F  </i>
   <i type="logical" name="L2ORDER"> F  </i>
   <i type="logical" name="LDMP1"> F  </i>
   <i type="logical" name="LMP2LT"> F  </i>
   <i type="logical" name="LSMP2LT"> F  </i>
   <i type="logical" name="LGWLF"> F  </i>
   <i name="ENCUTGW">     -2.00000000</i>
   <i name="ENCUTGWSOFT">     -2.00000000</i>
   <i name="ENCUTLF">     -1.00000000</i>
   <i type="logical" name="LESF_SPLINES"> F  </i>
   <i type="int" name="LMAXMP2">    -1</i>
   <i name="SCISSOR">      0.00000000</i>
   <i type="int" name="NOMEGA">     0</i>
   <i type="int" name="NOMEGAR">     0</i>
   <i type="int" name="NBANDSGW">    -1</i>
   <i type="int" name="NBANDSO">    -1</i>
   <i type="int" name="NBANDSV">    -1</i>
   <i type="int" name="NELMGW">     1</i>
   <i type="int" name="NELMHF">     1</i>
   <i type="int" name="DIM">     3</i>
   <i type="int" name="IESPILON">     4</i>
   <i type="int" name="ANTIRES">     0</i>
   <i name="OMEGAMAX">    -30.00000000</i>
   <i name="OMEGAMIN">    -30.00000000</i>
   <i name="OMEGATL">   -200.00000000</i>
   <i type="int" name="OMEGAGRID">     0</i>
   <i name="CSHIFT">     -0.10000000</i>
   <i type="logical" name="LSELFENERGY"> F  </i>
   <i type="logical" name="LSPECTRAL"> F  </i>
   <i type="logical" name="LSPECTRALGW"> F  </i>
   <i type="logical" name="LSINGLES"> F  </i>
   <i type="logical" name="LFERMIGW"> F  </i>
   <i type="logical" name="ODDONLYGW"> F  </i>
   <i type="logical" name="EVENONLYGW"> F  </i>
   <i type="int" name="NKREDLFX">     1</i>
   <i type="int" name="NKREDLFY">     1</i>
   <i type="int" name="NKREDLFZ">     1</i>
   <i type="int" name="MAXMEM">  2800</i>
   <i type="int" name="TELESCOPE">     0</i>
   <i type="int" name="NTAUPAR">    -1</i>
   <i type="int" name="NOMEGAPAR">    -1</i>
   <i name="DAMP_NEWTON">      0.80000001</i>
   <i name="LAMBDA">      1.00000000</i>
  </separator>
  <separator name="External order field" >
   <i name="OFIELD_KAPPA">      0.00000000</i>
   <v name="OFIELD_K">      0.00000000      0.00000000      0.00000000</v>
   <i name="OFIELD_Q6_NEAR">      0.00000000</i>
   <i name="OFIELD_Q6_FAR">      0.00000000</i>
   <i name="OFIELD_A">      0.00000000</i>
  </separator>
  <separator name="optional k-points parameters" >
   <i type="int" name="KPOINTS_OPT_MODE">     1</i>
   <i type="logical" name="LKPOINTS_OPT"> F  </i>
  </separator>
 </parameters>
 <atominfo>
  <atoms>      72 </atoms>
  <types>       1 </types>
  <array name="atoms" >
   <dimension dim="1">ion</dimension>
   <field type="string">element</field>
   <field type="int">atomtype</field>
   <set>
    <rc><c>Cu</c><c>   1</c></rc>
    <rc><c>Cu</c><c>   1</c></rc>
    <rc><c>Cu</c><c>   1</c></rc>
    <rc><c>Cu</c><c>   1</c></rc>
    <rc><c>Cu</c><c>   1</c></rc>
    <rc><c>Cu</c><c>   1</c></rc>
    <rc><c>Cu</c><c>   1</c></rc>
    <rc><c>Cu</c><c>   1</c></rc>
    <rc><c>Cu</c><c>   1</c></rc>
    <rc><c>Cu</c><c>   1</c></rc>
    <rc><c>Cu</c><c>   1</c></rc>
    <rc><c>Cu</c><c>   1</c></rc>
    <rc><c>Cu</c><c>   1</c></rc>
    <rc><c>Cu</c><c>   1</c></rc>
    <rc><c>Cu</c><c>   1</c></rc>
    <rc><c>Cu</c><c>   1</c></rc>
    <rc><c>Cu</c><c>   1</c></rc>
    <rc><c>Cu</c><c>   1</c></rc>
    <rc><c>Cu</c><c>   1</c></rc>
    <rc><c>Cu</c><c>   1</c></rc>
    <rc><c>Cu</c><c>   1</c></rc>
    <rc><c>Cu</c><c>   1</c></rc>
    <rc><c>Cu</c><c>   1</c></rc>
    <rc><c>Cu</c><c>   1</c></rc>
    <rc><c>Cu</c><c>   1</c></rc>
    <rc><c>Cu</c><c>   1</c></rc>
    <rc><c>Cu</c><c>   1</c></rc>
    <rc><c>Cu</c><c>   1</c></rc>
    <rc><c>Cu</c><c>   1</c></rc>
    <rc><c>Cu</c><c>   1</c></rc>
    <rc><c>Cu</c><c>   1</c></rc>
    <rc><c>Cu</c><c>   1</c></rc>
    <rc><c>Cu</c><c>   1</c></rc>
    <rc><c>Cu</c><c>   1</c></rc>
    <rc><c>Cu</c><c>   1</c></rc>
    <rc><c>Cu</c><c>   1</c></rc>
    <rc><c>Cu</c><c>   1</c></rc>
    <rc><c>Cu</c><c>   1</c></rc>
    <rc><c>Cu</c><c>   1</c></rc>
    <rc><c>Cu</c><c>   1</c></rc>
    <rc><c>Cu</c><c>   1</c></rc>
    <rc><c>Cu</c><c>   1</c></rc>
    <rc><c>Cu</c><c>   1</c></rc>
    <rc><c>Cu</c><c>   1</c></rc>
    <rc><c>Cu</c><c>   1</c></rc>
    <rc><c>Cu</c><c>   1</c></rc>
    <rc><c>Cu</c><c>   1</c></rc>
    <rc><c>Cu</c><c>   1</c></rc>
    <rc><c>Cu</c><c>   1</c></rc>
    <rc><c>Cu</c><c>   1</c></rc>
    <rc><c>Cu</c><c>   1</c></rc>
    <rc><c>Cu</c><c>   1</c></rc>
    <rc><c>Cu</c><c>   1</c></rc>
    <rc><c>Cu</c><c>   1</c></rc>
    <rc><c>Cu</c><c>   1</c></rc>
    <rc><c>Cu</c><c>   1</c></rc>
    <rc><c>Cu</c><c>   1</c></rc>
    <rc><c>Cu</c><c>   1</c></rc>
    <rc><c>Cu</c><c>   1</c></rc>
    <rc><c>Cu</c><c>   1</c></rc>
    <rc><c>Cu</c><c>   1</c></rc>
    <rc><c>Cu</c><c>   1</c></rc>
    <rc><c>Cu</c><c>   1</c></rc>
    <rc><c>Cu</c><c>   1</c></rc>
    <rc><c>Cu</c><c>   1</c></rc>
    <rc><c>Cu</c><c>   1</c></rc>
    <rc><c>Cu</c><c>   1</c></rc>
    <rc><c>Cu</c><c>   1</c></rc>
    <rc><c>Cu</c><c>   1</c></rc>
    <rc><c>Cu</c><c>   1</c></rc>
    <rc><c>Cu</c><c>   1</c></rc>
    <rc><c>Cu</c><c>   1</c></rc>
   </set>
  </array>
  <array name="atomtypes" >
   <dimension dim="1">type</dimension>
   <field type="int">atomspertype</field>
   <field type="string">element</field>
   <field>mass</field>
   <field>valence</field>
   <field type="string">pseudopotential</field>
   <set>
    <rc><c>  72</c><c>Cu</c><c>     63.54600000</c><c>     11.00000000</c><c>  PAW_PBE Cu 22Jun2005                  </c></rc>
   </set>
  </array>
 </atominfo>
 <structure name="initialpos" >
  <crystal>
   <varray name="basis" >
    <v>      10.89000034       0.00000000       0.00000000 </v>
    <v>       0.00000000       7.70039320       0.00000000 </v>
    <v>       0.00000000       0.00000000      23.98379135 </v>
   </varray>
   <i name="volume">   2011.21561690 </i>
   <varray name="rec_basis" >
    <v>       0.09182736       0.00000000       0.00000000 </v>
    <v>       0.00000000       0.12986350       0.00000000 </v>
    <v>       0.00000000       0.00000000       0.04169483 </v>
   </varray>
  </crystal>
  <varray name="positions" >
   <v>       0.00000000       0.00000000       0.00000000 </v>
   <v>       0.00000000       0.33333333       0.00000000 </v>
   <v>       0.00000000       0.66666667       0.00000000 </v>
   <v>       0.33333333       0.00000000       0.00000000 </v>
   <v>       0.33333333       0.33333333       0.00000000 </v>
   <v>       0.33333333       0.66666667       0.00000000 </v>
   <v>       0.66666667       0.00000000       0.00000000 </v>
   <v>       0.66666667       0.33333333       0.00000000 </v>
   <v>       0.66666667       0.66666667       0.00000000 </v>
   <v>       0.16666667       0.16666667       0.05351109 </v>
   <v>       0.16666667       0.50000000       0.05351109 </v>
   <v>       0.16666667       0.83333333       0.05351109 </v>
   <v>       0.50000000       0.16666667       0.05351109 </v>
   <v>       0.50000000       0.50000000       0.05351109 </v>
   <v>       0.50000000       0.83333333       0.05351109 </v>
   <v>       0.83333333       0.16666667       0.05351109 </v>
   <v>       0.83333333       0.50000000       0.05351109 </v>
   <v>       0.83333333       0.83333333       0.05351109 </v>
   <v>       0.00000000       0.00000000       0.10702218 </v>
   <v>       0.00000000       0.33333333       0.10702218 </v>
   <v>       0.00000000       0.66666667       0.10702218 </v>
   <v>       0.33333333       0.00000000       0.10702218 </v>
   <v>       0.33333333       0.33333333       0.10702218 </v>
   <v>       0.33333333       0.66666667       0.10702218 </v>
   <v>       0.66666667       0.00000000       0.10702218 </v>
   <v>       0.66666667       0.33333333       0.10702218 </v>
   <v>       0.66666667       0.66666667       0.10702218 </v>
   <v>       0.16666667       0.16666667       0.16053327 </v>
   <v>       0.16666667       0.50000000       0.16053327 </v>
   <v>       0.16666667       0.83333333       0.16053327 </v>
   <v>       0.50000000       0.16666667       0.16053327 </v>
   <v>       0.50000000       0.50000000       0.16053327 </v>
   <v>       0.50000000       0.83333333       0.16053327 </v>
   <v>       0.83333333       0.16666667       0.16053327 </v>
   <v>       0.83333333       0.50000000       0.16053327 </v>
   <v>       0.83333333       0.83333333       0.16053327 </v>
   <v>       0.00000000       0.00000000       0.21404436 </v>
   <v>       0.00000000       0.33333333       0.21404436 </v>
   <v>       0.00000000       0.66666667       0.21404436 </v>
   <v>       0.33333333       0.00000000       0.21404436 </v>
   <v>       0.33333333       0.33333333       0.21404436 </v>
   <v>       0.33333333       0.66666667       0.21404436 </v>
   <v>       0.66666667       0.00000000       0.21404436 </v>
   <v>       0.66666667       0.33333333       0.21404436 </v>
   <v>       0.66666667       0.66666667       0.21404436 </v>
   <v>       0.16666667       0.16666667       0.26755545 </v>
   <v>       0.16666667       0.50000000       0.26755545 </v>
   <v>       0.16666667       0.83333333       0.26755545 </v>
   <v>       0.50000000       0.16666667       0.26755545 </v>
   <v>       0.50000000       0.50000000       0.26755545 </v>
   <v>       0.50000000       0.83333333       0.26755545 </v>
   <v>       0.83333333       0.16666667       0.26755545 </v>
   <v>       0.83333333       0.50000000       0.26755545 </v>
   <v>       0.83333333       0.83333333       0.26755545 </v>
   <v>       0.00000000       0.00000000       0.32106654 </v>
   <v>       0.00000000       0.33333333       0.32106654 </v>
   <v>       0.00000000       0.66666667       0.32106654 </v>
   <v>       0.33333333       0.00000000       0.32106654 </v>
   <v>       0.33333333       0.33333333       0.32106654 </v>
   <v>       0.33333333       0.66666667       0.32106654 </v>
   <v>       0.66666667       0.00000000       0.32106654 </v>
   <v>       0.66666667       0.33333333       0.32106654 </v>
   <v>       0.66666667       0.66666667       0.32106654 </v>
   <v>       0.16666667       0.16666667       0.37457763 </v>
   <v>       0.16666667       0.50000000       0.37457763 </v>
   <v>       0.16666667       0.83333333       0.37457763 </v>
   <v>       0.50000000       0.16666667       0.37457763 </v>
   <v>       0.50000000       0.50000000       0.37457763 </v>
   <v>       0.50000000       0.83333333       0.37457763 </v>
   <v>       0.83333333       0.16666667       0.37457763 </v>
   <v>       0.83333333       0.50000000       0.37457763 </v>
   <v>       0.83333333       0.83333333       0.37457763 </v>
  </varray>
  <varray name="selective"  type="logical" >
   <v type="logical" >  F  F  F </v>
   <v type="logical" >  F  F  F </v>
   <v type="logical" >  F  F  F </v>
   <v type="logical" >  F  F  F </v>
   <v type="logical" >  F  F  F </v>
   <v type="logical" >  F  F  F </v>
   <v type="logical" >  F  F  F </v>
   <v type="logical" >  F  F  F </v>
   <v type="logical" >  F  F  F </v>
   <v type="logical" >  F  F  F </v>
   <v type="logical" >  F  F  F </v>
   <v type="logical" >  F  F  F </v>
   <v type="logical" >  F  F  F </v>
   <v type="logical" >  F  F  F </v>
   <v type="logical" >  F  F  F </v>
   <v type="logical" >  F  F  F </v>
   <v type="logical" >  F  F  F </v>
   <v type="logical" >  F  F  F </v>
   <v type="logical" >  T  T  T </v>
   <v type="logical" >  T  T  T </v>
   <v type="logical" >  T  T  T </v>
   <v type="logical" >  T  T  T </v>
   <v type="logical" >  T  T  T </v>
   <v type="logical" >  T  T  T </v>
   <v type="logical" >  T  T  T </v>
   <v type="logical" >  T  T  T </v>
   <v type="logical" >  T  T  T </v>
   <v type="logical" >  T  T  T </v>
   <v type="logical" >  T  T  T </v>
   <v type="logical" >  T  T  T </v>
   <v type="logical" >  T  T  T </v>
   <v type="logical" >  T  T  T </v>
   <v type="logical" >  T  T  T </v>
   <v type="logical" >  T  T  T </v>
   <v type="logical" >  T  T  T </v>
   <v type="logical" >  T  T  T </v>
   <v type="logical" >  T  T  T </v>
   <v type="logical" >  T  T  T </v>
   <v type="logical" >  T  T  T </v>
   <v type="logical" >  T  T  T </v>
   <v type="logical" >  T  T  T </v>
   <v type="logical" >  T  T  T </v>
   <v type="logical" >  T  T  T </v>
   <v type="logical" >  T  T  T </v>
   <v type="logical" >  T  T  T </v>
   <v type="logical" >  T  T  T </v>
   <v type="logical" >  T  T  T </v>
   <v type="logical" >  T  T  T </v>
   <v type="logical" >  T  T  T </v>
   <v type="logical" >  T  T  T </v>
   <v type="logical" >  T  T  T </v>
   <v type="logical" >  T  T  T </v>
   <v type="logical" >  T  T  T </v>
   <v type="logical" >  T  T  T </v>
   <v type="logical" >  T  T  T </v>
   <v type="logical" >  T  T  T </v>
   <v type="logical" >  T  T  T </v>
   <v type="logical" >  T  T  T </v>
   <v type="logical" >  T  T  T </v>
   <v type="logical" >  T  T  T </v>
   <v type="logical" >  T  T  T </v>
   <v type="logical" >  T  T  T </v>
   <v type="logical" >  T  T  T </v>
   <v type="logical" >  T  T  T </v>
   <v type="logical" >  T  T  T </v>
   <v type="logical" >  T  T  T </v>
   <v type="logical" >  T  T  T </v>
   <v type="logical" >  T  T  T </v>
   <v type="logical" >  T  T  T </v>
   <v type="logical" >  T  T  T </v>
   <v type="logical" >  T  T  T </v>
   <v type="logical" >  T  T  T </v>
  </varray>
  <nose>
   <v>      -3.00000000       0.00000000       0.00010000       0.00010000 </v>
  </nose>
 </structure>
 <calculation>
  <scstep>
   <time name="dav">   93.05   94.65</time>
   <time name="total">   93.24   95.45</time>
   <energy>
    <i name="alphaZ">   1885.03137702 </i>
    <i name="ewald"> 369450.78347590 </i>
    <i name="hartreedc">-466485.64868196 </i>
    <i name="XCdc">   3285.58213086 </i>
    <i name="pawpsdc">  88423.01971552 </i>
    <i name="pawaedc"> -96042.30706980 </i>
    <i name="eentropy">     -0.01738028 </i>
    <i name="bandstr">   6682.63323210 </i>
    <i name="atom"> 100148.95009438 </i>
    <i name="e_fr_energy">   7348.02689375 </i>
    <i name="e_wo_entrp">   7348.04427403 </i>
    <i name="e_0_energy">   7348.03268718 </i>
   </energy>
  </scstep>
  <scstep>
   <time name="dav">   90.36   91.07</time>
   <time name="total">   90.37   91.08</time>
   <energy>
    <i name="e_fr_energy">    892.53664237 </i>
    <i name="e_wo_entrp">    892.53935569 </i>
    <i name="e_0_energy">    892.53754681 </i>
   </energy>
  </scstep>
  <scstep>
   <time name="dav">   90.46   91.12</time>
   <time name="total">   90.47   91.12</time>
   <energy>
    <i name="e_fr_energy">   -217.14985361 </i>
    <i name="e_wo_entrp">   -217.19516534 </i>
    <i name="e_0_energy">   -217.16495752 </i>
   </energy>
  </scstep>
  <scstep>
   <time name="dav">  101.50  102.86</time>
   <time name="total">  101.51  102.87</time>
   <energy>
    <i name="e_fr_energy">   -296.55969700 </i>
    <i name="e_wo_entrp">   -296.66303928 </i>
    <i name="e_0_energy">   -296.59414443 </i>
   </energy>
  </scstep>
  <scstep>
   <time name="dav">   99.16   99.92</time>
   <time name="total">  101.01  101.77</time>
   <energy>
    <i name="e_fr_energy">   -298.51961058 </i>
    <i name="e_wo_entrp">   -298.62578162 </i>
    <i name="e_0_energy">   -298.55500093 </i>
   </energy>
  </scstep>
  <scstep>
   <time name="dav">   95.51   96.17</time>
   <time name="total">   97.51   98.19</time>
   <energy>
    <i name="e_fr_energy">   -243.88937200 </i>
    <i name="e_wo_entrp">   -243.83279737 </i>
    <i name="e_0_energy">   -243.87051379 </i>
   </energy>
  </scstep>
  <scstep>
   <time name="dav">   98.55   99.45</time>
   <time name="total">  100.54  101.46</time>
   <energy>
    <i name="e_fr_energy">   -209.77995442 </i>
    <i name="e_wo_entrp">   -209.77238970 </i>
    <i name="e_0_energy">   -209.77743284 </i>
   </energy>
  </scstep>
  <scstep>
   <time name="dav">  103.16  103.85</time>
   <time name="total">  105.17  105.87</time>
   <energy>
    <i name="e_fr_energy">   -204.42096651 </i>
    <i name="e_wo_entrp">   -204.42629449 </i>
    <i name="e_0_energy">   -204.42274250 </i>
   </energy>
  </scstep>
  <scstep>
   <time name="dav">  115.53  116.27</time>
   <time name="total">  117.49  118.25</time>
   <energy>
    <i name="e_fr_energy">   -199.31368661 </i>
    <i name="e_wo_entrp">   -199.34090470 </i>
    <i name="e_0_energy">   -199.32275931 </i>
   </energy>
  </scstep>
  <scstep>
   <time name="dav">  128.15  129.50</time>
   <time name="total">  130.16  131.52</time>
   <energy>
    <i name="e_fr_energy">   -198.33885254 </i>
    <i name="e_wo_entrp">   -198.32766620 </i>
    <i name="e_0_energy">   -198.33512376 </i>
   </energy>
  </scstep>
  <scstep>
   <time name="dav">  103.24  103.93</time>
   <time name="total">  105.25  105.95</time>
   <energy>
    <i name="e_fr_energy">   -199.97163040 </i>
    <i name="e_wo_entrp">   -199.96403693 </i>
    <i name="e_0_energy">   -199.96909924 </i>
   </energy>
  </scstep>
  <scstep>
   <time name="dav">  107.11  107.96</time>
   <time name="total">  109.08  109.95</time>
   <energy>
    <i name="e_fr_energy">   -210.70289049 </i>
    <i name="e_wo_entrp">   -210.70012309 </i>
    <i name="e_0_energy">   -210.70196803 </i>
   </energy>
  </scstep>
  <scstep>
   <time name="dav">  111.61  112.51</time>
   <time name="total">  113.59  114.50</time>
   <energy>
    <i name="e_fr_energy">   -223.30442896 </i>
    <i name="e_wo_entrp">   -223.28407233 </i>
    <i name="e_0_energy">   -223.29764341 </i>
   </energy>
  </scstep>
  <scstep>
   <time name="dav">  127.59  128.41</time>
   <time name="total">  129.59  130.43</time>
   <energy>
    <i name="e_fr_energy">   -229.30877962 </i>
    <i name="e_wo_entrp">   -229.29192767 </i>
    <i name="e_0_energy">   -229.30316230 </i>
   </energy>
  </scstep>
  <scstep>
   <time name="dav">  118.95  120.02</time>
   <time name="total">  121.01  122.09</time>
   <energy>
    <i name="e_fr_energy">   -239.32995956 </i>
    <i name="e_wo_entrp">   -239.33529788 </i>
    <i name="e_0_energy">   -239.33173900 </i>
   </energy>
  </scstep>
  <scstep>
   <time name="dav">   96.70   97.32</time>
   <time name="total">   98.71   99.34</time>
   <energy>
    <i name="e_fr_energy">   -245.02629641 </i>
    <i name="e_wo_entrp">   -245.02339208 </i>
    <i name="e_0_energy">   -245.02532830 </i>
   </energy>
  </scstep>
  <scstep>
   <time name="dav">   99.07   99.74</time>
   <time name="total">  101.07  101.75</time>
   <energy>
    <i name="e_fr_energy">   -246.88417662 </i>
    <i name="e_wo_entrp">   -246.86582071 </i>
    <i name="e_0_energy">   -246.87805798 </i>
   </energy>
  </scstep>
  <scstep>
   <time name="dav">  120.06  121.27</time>
   <time name="total">  122.02  123.25</time>
   <energy>
    <i name="e_fr_energy">   -248.19147741 </i>
    <i name="e_wo_entrp">   -248.15076503 </i>
    <i name="e_0_energy">   -248.17790662 </i>
   </energy>
  </scstep>
  <scstep>
   <time name="dav">  102.21  102.85</time>
   <time name="total">  104.24  104.88</time>
   <energy>
    <i name="e_fr_energy">   -248.96213977 </i>
    <i name="e_wo_entrp">   -248.92077953 </i>
    <i name="e_0_energy">   -248.94835302 </i>
   </energy>
  </scstep>
  <scstep>
   <time name="dav">  106.32  106.99</time>
   <time name="total">  108.35  109.04</time>
   <energy>
    <i name="e_fr_energy">   -250.04109465 </i>
    <i name="e_wo_entrp">   -249.99934390 </i>
    <i name="e_0_energy">   -250.02717773 </i>
   </energy>
  </scstep>
  <scstep>
   <time name="dav">  113.13  114.39</time>
   <time name="total">  115.09  116.39</time>
   <energy>
    <i name="e_fr_energy">   -250.37207906 </i>
    <i name="e_wo_entrp">   -250.32907205 </i>
    <i name="e_0_energy">   -250.35774339 </i>
   </energy>
  </scstep>
  <scstep>
   <time name="dav">  103.70  104.36</time>
   <time name="total">  105.69  106.38</time>
   <energy>
    <i name="e_fr_energy">   -250.87323419 </i>
    <i name="e_wo_entrp">   -250.82922213 </i>
    <i name="e_0_energy">   -250.85856350 </i>
   </energy>
  </scstep>
  <scstep>
   <time name="dav">  106.12  106.92</time>
   <time name="total">  108.10  108.91</time>
   <energy>
    <i name="e_fr_energy">   -251.27415167 </i>
    <i name="e_wo_entrp">   -251.23025160 </i>
    <i name="e_0_energy">   -251.25951831 </i>
   </energy>
  </scstep>
  <scstep>
   <time name="dav">  107.07  108.05</time>
   <time name="total">  109.07  110.07</time>
   <energy>
    <i name="e_fr_energy">   -251.75859702 </i>
    <i name="e_wo_entrp">   -251.71521656 </i>
    <i name="e_0_energy">   -251.74413686 </i>
   </energy>
  </scstep>
  <scstep>
   <time name="dav">  107.34  108.09</time>
   <time name="total">  109.29  110.05</time>
   <energy>
    <i name="e_fr_energy">   -252.05047382 </i>
    <i name="e_wo_entrp">   -252.00694050 </i>
    <i name="e_0_energy">   -252.03596272 </i>
   </energy>
  </scstep>
  <scstep>
   <time name="dav">  103.22  103.94</time>
   <time name="total">  105.19  105.94</time>
   <energy>
    <i name="e_fr_energy">   -252.13524539 </i>
    <i name="e_wo_entrp">   -252.09161569 </i>
    <i name="e_0_energy">   -252.12070216 </i>
   </energy>
  </scstep>
  <scstep>
   <time name="dav">  105.65  106.74</time>
   <time name="total">  107.60  108.70</time>
   <energy>
    <i name="e_fr_energy">   -252.17016463 </i>
    <i name="e_wo_entrp">   -252.12636995 </i>
    <i name="e_0_energy">   -252.15556640 </i>
   </energy>
  </scstep>
  <scstep>
   <time name="dav">   91.51   92.20</time>
   <time name="total">   93.50   94.21</time>
   <energy>
    <i name="e_fr_energy">   -252.19419938 </i>
    <i name="e_wo_entrp">   -252.15061010 </i>
    <i name="e_0_energy">   -252.17966962 </i>
   </energy>
  </scstep>
  <scstep>
   <time name="dav">   74.40   74.92</time>
   <time name="total">   76.41   76.94</time>
   <energy>
    <i name="e_fr_energy">   -252.19919715 </i>
    <i name="e_wo_entrp">   -252.15548512 </i>
    <i name="e_0_energy">   -252.18462647 </i>
   </energy>
  </scstep>
  <scstep>
   <time name="dav">   69.71   70.42</time>
   <time name="total">   71.63   72.36</time>
   <energy>
    <i name="e_fr_energy">   -252.19996087 </i>
    <i name="e_wo_entrp">   -252.15621797 </i>
    <i name="e_0_energy">   -252.18537991 </i>
   </energy>
  </scstep>
  <scstep>
   <time name="dav">   65.11   65.56</time>
   <time name="total">   65.29   65.74</time>
   <energy>
    <i name="alphaZ">   1885.03137702 </i>
    <i name="ewald"> 369450.78347590 </i>
    <i name="hartreedc">-465535.16815640 </i>
    <i name="XCdc">   3205.23841902 </i>
    <i name="pawpsdc">  93634.85315761 </i>
    <i name="pawaedc">-101379.43422555 </i>
    <i name="eentropy">     -0.04369729 </i>
    <i name="bandstr">  -1662.41054672 </i>
    <i name="atom"> 100148.95009438 </i>
    <i name="e_fr_energy">   -252.20010202 </i>
    <i name="e_wo_entrp">   -252.15640473 </i>
    <i name="e_0_energy">   -252.18553626 </i>
   </energy>
  </scstep>
  <dipole>
   <v name="dipole">      0.00000000       0.00000000       0.04781488 </v>
   <i name="Tr[quadrupol]"> -12385.61741078 </i>
   <i name="Echarged">      0.00000000 </i>
   <i name="Edipol_quadrupol">      0.00000000 </i>
   <i name="Eion">      0.00000000 </i>
  </dipole>
  <structure>
   <crystal>
    <varray name="basis" >
     <v>      10.89000034       0.00000000       0.00000000 </v>
     <v>       0.00000000       7.70039320       0.00000000 </v>
     <v>       0.00000000       0.00000000      23.98379135 </v>
    </varray>
    <i name="volume">   2011.21561690 </i>
    <varray name="rec_basis" >
     <v>       0.09182736       0.00000000       0.00000000 </v>
     <v>       0.00000000       0.12986350       0.00000000 </v>
     <v>       0.00000000       0.00000000       0.04169483 </v>
    </varray>
   </crystal>
   <varray name="positions" >
    <v>       0.00000000       0.00000000       0.00000000 </v>
    <v>       0.00000000       0.33333333       0.00000000 </v>
    <v>       0.00000000       0.66666667       0.00000000 </v>
    <v>       0.33333333       0.00000000       0.00000000 </v>
    <v>       0.33333333       0.33333333       0.00000000 </v>
    <v>       0.33333333       0.66666667       0.00000000 </v>
    <v>       0.66666667       0.00000000       0.00000000 </v>
    <v>       0.66666667       0.33333333       0.00000000 </v>
    <v>       0.66666667       0.66666667       0.00000000 </v>
    <v>       0.16666667       0.16666667       0.05351109 </v>
    <v>       0.16666667       0.50000000       0.05351109 </v>
    <v>       0.16666667       0.83333333       0.05351109 </v>
    <v>       0.50000000       0.16666667       0.05351109 </v>
    <v>       0.50000000       0.50000000       0.05351109 </v>
    <v>       0.50000000       0.83333333       0.05351109 </v>
    <v>       0.83333333       0.16666667       0.05351109 </v>
    <v>       0.83333333       0.50000000       0.05351109 </v>
    <v>       0.83333333       0.83333333       0.05351109 </v>
    <v>       0.00000000       0.00000000       0.10702218 </v>
    <v>       0.00000000       0.33333333       0.10702218 </v>
    <v>       0.00000000       0.66666667       0.10702218 </v>
    <v>       0.33333333       0.00000000       0.10702218 </v>
    <v>       0.33333333       0.33333333       0.10702218 </v>
    <v>       0.33333333       0.66666667       0.10702218 </v>
    <v>       0.66666667       0.00000000       0.10702218 </v>
    <v>       0.66666667       0.33333333       0.10702218 </v>
    <v>       0.66666667       0.66666667       0.10702218 </v>
    <v>       0.16666667       0.16666667       0.16053327 </v>
    <v>       0.16666667       0.50000000       0.16053327 </v>
    <v>       0.16666667       0.83333333       0.16053327 </v>
    <v>       0.50000000       0.16666667       0.16053327 </v>
    <v>       0.50000000       0.50000000       0.16053327 </v>
    <v>       0.50000000       0.83333333       0.16053327 </v>
    <v>       0.83333333       0.16666667       0.16053327 </v>
    <v>       0.83333333       0.50000000       0.16053327 </v>
    <v>       0.83333333       0.83333333       0.16053327 </v>
    <v>       0.00000000       0.00000000       0.21404436 </v>
    <v>       0.00000000       0.33333333       0.21404436 </v>
    <v>       0.00000000       0.66666667       0.21404436 </v>
    <v>       0.33333333       0.00000000       0.21404436 </v>
    <v>       0.33333333       0.33333333       0.21404436 </v>
    <v>       0.33333333       0.66666667       0.21404436 </v>
    <v>       0.66666667       0.00000000       0.21404436 </v>
    <v>       0.66666667       0.33333333       0.21404436 </v>
    <v>       0.66666667       0.66666667       0.21404436 </v>
    <v>       0.16666667       0.16666667       0.26755545 </v>
    <v>       0.16666667       0.50000000       0.26755545 </v>
    <v>       0.16666667       0.83333333       0.26755545 </v>
    <v>       0.50000000       0.16666667       0.26755545 </v>
    <v>       0.50000000       0.50000000       0.26755545 </v>
    <v>       0.50000000       0.83333333       0.26755545 </v>
    <v>       0.83333333       0.16666667       0.26755545 </v>
    <v>       0.83333333       0.50000000       0.26755545 </v>
    <v>       0.83333333       0.83333333       0.26755545 </v>
    <v>       0.00000000       0.00000000       0.32106654 </v>
    <v>       0.00000000       0.33333333       0.32106654 </v>
    <v>       0.00000000       0.66666667       0.32106654 </v>
    <v>       0.33333333       0.00000000       0.32106654 </v>
    <v>       0.33333333       0.33333333       0.32106654 </v>
    <v>       0.33333333       0.66666667       0.32106654 </v>
    <v>       0.66666667       0.00000000       0.32106654 </v>
    <v>       0.66666667       0.33333333       0.32106654 </v>
    <v>       0.66666667       0.66666667       0.32106654 </v>
    <v>       0.16666667       0.16666667       0.37457763 </v>
    <v>       0.16666667       0.50000000       0.37457763 </v>
    <v>       0.16666667       0.83333333       0.37457763 </v>
    <v>       0.50000000       0.16666667       0.37457763 </v>
    <v>       0.50000000       0.50000000       0.37457763 </v>
    <v>       0.50000000       0.83333333       0.37457763 </v>
    <v>       0.83333333       0.16666667       0.37457763 </v>
    <v>       0.83333333       0.50000000       0.37457763 </v>
    <v>       0.83333333       0.83333333       0.37457763 </v>
   </varray>
  </structure>
  <varray name="forces" >
   <v>       0.00000000       0.00000000       0.51743436 </v>
   <v>       0.00000000      -0.00000000       0.51743436 </v>
   <v>      -0.00000000       0.00000000       0.51743436 </v>
   <v>       0.00000000       0.00000000       0.51743436 </v>
   <v>      -0.00000000      -0.00000000       0.51743436 </v>
   <v>      -0.00000000       0.00000000       0.51743436 </v>
   <v>      -0.00000000       0.00000000       0.51743436 </v>
   <v>      -0.00000000       0.00000000       0.51743436 </v>
   <v>       0.00000000       0.00000000       0.51743436 </v>
   <v>      -0.00000000      -0.00000000      -0.25599675 </v>
   <v>       0.00000000       0.00000000      -0.25599675 </v>
   <v>       0.00000000       0.00000000      -0.25599675 </v>
   <v>      -0.00000000       0.00000000      -0.25599675 </v>
   <v>       0.00000000       0.00000000      -0.25599675 </v>
   <v>      -0.00000000      -0.00000000      -0.25599675 </v>
   <v>       0.00000000       0.00000000      -0.25599675 </v>
   <v>       0.00000000      -0.00000000      -0.25599675 </v>
   <v>       0.00000000      -0.00000000      -0.25599675 </v>
   <v>       0.00000000       0.00000000       0.07371517 </v>
   <v>       0.00000000       0.00000000       0.07371517 </v>
   <v>       0.00000000       0.00000000       0.07371517 </v>
   <v>      -0.00000000       0.00000000       0.07371517 </v>
   <v>      -0.00000000       0.00000000       0.07371517 </v>
   <v>      -0.00000000       0.00000000       0.07371517 </v>
   <v>      -0.00000000       0.00000000       0.07371517 </v>
   <v>       0.00000000       0.00000000       0.07371517 </v>
   <v>      -0.00000000       0.00000000       0.07371517 </v>
   <v>       0.00000000       0.00000000      -0.01669914 </v>
   <v>       0.00000000       0.00000000      -0.01669914 </v>
   <v>      -0.00000000      -0.00000000      -0.01669914 </v>
   <v>      -0.00000000       0.00000000      -0.01669914 </v>
   <v>      -0.00000000       0.00000000      -0.01669914 </v>
   <v>       0.00000000       0.00000000      -0.01669914 </v>
   <v>       0.00000000       0.00000000      -0.01669914 </v>
   <v>       0.00000000       0.00000000      -0.01669914 </v>
   <v>      -0.00000000       0.00000000      -0.01669914 </v>
   <v>       0.00000000       0.00000000       0.00981967 </v>
   <v>      -0.00000000      -0.00000000       0.00981967 </v>
   <v>       0.00000000       0.00000000       0.00981967 </v>
   <v>      -0.00000000       0.00000000       0.00981967 </v>
   <v>      -0.00000000      -0.00000000       0.00981967 </v>
   <v>      -0.00000000       0.00000000       0.00981967 </v>
   <v>       0.00000000       0.00000000       0.00981967 </v>
   <v>      -0.00000000       0.00000000       0.00981967 </v>
   <v>       0.00000000       0.00000000       0.00981967 </v>
   <v>       0.00000000      -0.00000000      -0.07534766 </v>
   <v>      -0.00000000       0.00000000      -0.07534766 </v>
   <v>       0.00000000       0.00000000      -0.07534766 </v>
   <v>      -0.00000000       0.00000000      -0.07534766 </v>
   <v>       0.00000000       0.00000000      -0.07534766 </v>
   <v>      -0.00000000      -0.00000000      -0.07534766 </v>
   <v>      -0.00000000       0.00000000      -0.07534766 </v>
   <v>      -0.00000000       0.00000000      -0.07534766 </v>
   <v>       0.00000000       0.00000000      -0.07534766 </v>
   <v>      -0.00000000       0.00000000       0.25997463 </v>
   <v>      -0.00000000       0.00000000       0.25997463 </v>
   <v>      -0.00000000       0.00000000       0.25997463 </v>
   <v>      -0.00000000       0.00000000       0.25997463 </v>
   <v>      -0.00000000       0.00000000       0.25997463 </v>
   <v>      -0.00000000       0.00000000       0.25997463 </v>
   <v>       0.00000000       0.00000000       0.25997463 </v>
   <v>      -0.00000000       0.00000000       0.25997463 </v>
   <v>      -0.00000000       0.00000000       0.25997463 </v>
   <v>       0.00000000      -0.00000000      -0.51290028 </v>
   <v>      -0.00000000       0.00000000      -0.51290028 </v>
   <v>       0.00000000      -0.00000000      -0.51290028 </v>
   <v>      -0.00000000       0.00000000      -0.51290028 </v>
   <v>       0.00000000      -0.00000000      -0.51290028 </v>
   <v>       0.00000000       0.00000000      -0.51290028 </v>
   <v>      -0.00000000       0.00000000      -0.51290028 </v>
   <v>       0.00000000      -0.00000000      -0.51290028 </v>
   <v>       0.00000000      -0.00000000      -0.51290028 </v>
  </varray>
  <varray name="stress" >
   <v>     -45.57701583       0.00000000       0.00000000 </v>
   <v>       0.00000000     -44.69614376       0.00000000 </v>
   <v>       0.00000000       0.00000000     -27.10359723 </v>
  </varray>
  <energy>
   <i name="e_fr_energy">   -278.89050052 </i>
   <i name="e_wo_entrp">   -278.84680323 </i>
   <i name="e_0_energy">   -278.87593475 </i>
  </energy>
  <time name="totalsc"> 3416.60 3445.14</time>
 </calculation>
 <calculation>
  <scstep>
   <time name="dav">   97.90   98.61</time>
   <time name="total">   99.87  100.59</time>
   <energy>
    <i name="alphaZ">   1885.03137702 </i>
    <i name="ewald"> 370189.62861800 </i>
    <i name="hartreedc">-466272.36029948 </i>
    <i name="XCdc">   3205.59728892 </i>
    <i name="pawpsdc">  93634.80443096 </i>
    <i name="pawaedc">-101379.39017986 </i>
    <i name="eentropy">     -0.04440391 </i>
    <i name="bandstr">  -1664.45504479 </i>
    <i name="atom"> 100148.95009438 </i>
    <i name="e_fr_energy">   -252.23811875 </i>
    <i name="e_wo_entrp">   -252.19371484 </i>
    <i name="e_0_energy">   -252.22331745 </i>
   </energy>
  </scstep>
  <scstep>
   <time name="dav">  126.71  127.49</time>
   <time name="total">  128.73  129.52</time>
   <energy>
    <i name="e_fr_energy">   -252.31717916 </i>
    <i name="e_wo_entrp">   -252.27254495 </i>
    <i name="e_0_energy">   -252.30230109 </i>
   </energy>
  </scstep>
  <scstep>
   <time name="dav">   98.64   99.51</time>
   <time name="total">  100.62  101.50</time>
   <energy>
    <i name="e_fr_energy">   -252.30841412 </i>
    <i name="e_wo_entrp">   -252.26381445 </i>
    <i name="e_0_energy">   -252.29354756 </i>
   </energy>
  </scstep>
  <scstep>
   <time name="dav">  103.37  104.01</time>
   <time name="total">  105.37  106.02</time>
   <energy>
    <i name="e_fr_energy">   -252.30792465 </i>
    <i name="e_wo_entrp">   -252.26337714 </i>
    <i name="e_0_energy">   -252.29307548 </i>
   </energy>
  </scstep>
  <scstep>
   <time name="dav">   94.69   95.31</time>
   <time name="total">   96.67   97.30</time>
   <energy>
    <i name="e_fr_energy">   -252.30795910 </i>
    <i name="e_wo_entrp">   -252.26345299 </i>
    <i name="e_0_energy">   -252.29312373 </i>
   </energy>
  </scstep>
  <scstep>
   <time name="dav">  100.54  101.33</time>
   <time name="total">  102.52  103.33</time>
   <energy>
    <i name="e_fr_energy">   -252.30704532 </i>
    <i name="e_wo_entrp">   -252.26257876 </i>
    <i name="e_0_energy">   -252.29222314 </i>
   </energy>
  </scstep>
  <scstep>
   <time name="dav">  119.09  119.89</time>
   <time name="total">  121.07  121.90</time>
   <energy>
    <i name="e_fr_energy">   -252.30695076 </i>
    <i name="e_wo_entrp">   -252.26283660 </i>
    <i name="e_0_energy">   -252.29224604 </i>
   </energy>
  </scstep>
  <scstep>
   <time name="dav">   67.39   67.84</time>
   <time name="total">   67.56   68.02</time>
   <energy>
    <i name="alphaZ">   1885.03137702 </i>
    <i name="ewald"> 370189.62861800 </i>
    <i name="hartreedc">-466266.05548304 </i>
    <i name="XCdc">   3205.43877523 </i>
    <i name="pawpsdc">  93671.03522980 </i>
    <i name="pawaedc">-101416.40566310 </i>
    <i name="eentropy">     -0.04441708 </i>
    <i name="bandstr">  -1669.88537702 </i>
    <i name="atom"> 100148.95009438 </i>
    <i name="e_fr_energy">   -252.30684581 </i>
    <i name="e_wo_entrp">   -252.26242873 </i>
    <i name="e_0_energy">   -252.29204012 </i>
   </energy>
  </scstep>
  <dipole>
   <v name="dipole">      0.00000000       0.00000000       0.00305953 </v>
   <i name="Tr[quadrupol]"> -12385.46042452 </i>
   <i name="Echarged">      0.00000000 </i>
   <i name="Edipol_quadrupol">      0.00000000 </i>
   <i name="Eion">      0.00000000 </i>
  </dipole>
  <structure>
   <crystal>
    <varray name="basis" >
     <v>      10.89000034       0.00000000       0.00000000 </v>
     <v>       0.00000000       7.70039320       0.00000000 </v>
     <v>       0.00000000       0.00000000      23.98379135 </v>
    </varray>
    <i name="volume">   2011.21561690 </i>
    <varray name="rec_basis" >
     <v>       0.09182736       0.00000000       0.00000000 </v>
     <v>       0.00000000       0.12986350       0.00000000 </v>
     <v>       0.00000000       0.00000000       0.04169483 </v>
    </varray>
   </crystal>
   <varray name="positions" >
    <v>       0.00000000       0.00000000       0.00000000 </v>
    <v>       0.00000000       0.33333333       0.00000000 </v>
    <v>       0.00000000       0.66666667       0.00000000 </v>
    <v>       0.33333333       0.00000000       0.00000000 </v>
    <v>       0.33333333       0.33333333       0.00000000 </v>
    <v>       0.33333333       0.66666667       0.00000000 </v>
    <v>       0.66666667       0.00000000       0.00000000 </v>
    <v>       0.66666667       0.33333333       0.00000000 </v>
    <v>       0.66666667       0.66666667       0.00000000 </v>
    <v>       0.16666667       0.16666667       0.05351109 </v>
    <v>       0.16666667       0.50000000       0.05351109 </v>
    <v>       0.16666667       0.83333333       0.05351109 </v>
    <v>       0.50000000       0.16666667       0.05351109 </v>
    <v>       0.50000000       0.50000000       0.05351109 </v>
    <v>       0.50000000       0.83333333       0.05351109 </v>
    <v>       0.83333333       0.16666667       0.05351109 </v>
    <v>       0.83333333       0.50000000       0.05351109 </v>
    <v>       0.83333333       0.83333333       0.05351109 </v>
    <v>       0.00000000       0.00000000       0.10717046 </v>
    <v>       0.00000000       0.33333333       0.10717046 </v>
    <v>       0.00000000       0.66666667       0.10717046 </v>
    <v>       0.33333333       0.00000000       0.10717046 </v>
    <v>       0.33333333       0.33333333       0.10717046 </v>
    <v>       0.33333333       0.66666667       0.10717046 </v>
    <v>       0.66666667       0.00000000       0.10717046 </v>
    <v>       0.66666667       0.33333333       0.10717046 </v>
    <v>       0.66666667       0.66666667       0.10717046 </v>
    <v>       0.16666667       0.16666667       0.16049968 </v>
    <v>       0.16666667       0.50000000       0.16049968 </v>
    <v>       0.16666667       0.83333333       0.16049968 </v>
    <v>       0.50000000       0.16666667       0.16049968 </v>
    <v>       0.50000000       0.50000000       0.16049968 </v>
    <v>       0.50000000       0.83333333       0.16049968 </v>
    <v>       0.83333333       0.16666667       0.16049968 </v>
    <v>       0.83333333       0.50000000       0.16049968 </v>
    <v>       0.83333333       0.83333333       0.16049968 </v>
    <v>       0.00000000       0.00000000       0.21406411 </v>
    <v>      -0.00000000       0.33333333       0.21406411 </v>
    <v>       0.00000000       0.66666667       0.21406411 </v>
    <v>       0.33333333       0.00000000       0.21406411 </v>
    <v>       0.33333333       0.33333333       0.21406411 </v>
    <v>       0.33333333       0.66666667       0.21406411 </v>
    <v>       0.66666667       0.00000000       0.21406411 </v>
    <v>       0.66666667       0.33333333       0.21406411 </v>
    <v>       0.66666667       0.66666667       0.21406411 </v>
    <v>       0.16666667       0.16666667       0.26740389 </v>
    <v>       0.16666667       0.50000000       0.26740389 </v>
    <v>       0.16666667       0.83333333       0.26740389 </v>
    <v>       0.50000000       0.16666667       0.26740389 </v>
    <v>       0.50000000       0.50000000       0.26740389 </v>
    <v>       0.50000000       0.83333333       0.26740389 </v>
    <v>       0.83333333       0.16666667       0.26740389 </v>
    <v>       0.83333333       0.50000000       0.26740389 </v>
    <v>       0.83333333       0.83333333       0.26740389 </v>
    <v>      -0.00000000       0.00000000       0.32158947 </v>
    <v>      -0.00000000       0.33333333       0.32158947 </v>
    <v>      -0.00000000       0.66666667       0.32158947 </v>
    <v>       0.33333333       0.00000000       0.32158947 </v>
    <v>       0.33333333       0.33333333       0.32158947 </v>
    <v>       0.33333333       0.66666667       0.32158947 </v>
    <v>       0.66666667       0.00000000       0.32158947 </v>
    <v>       0.66666667       0.33333333       0.32158947 </v>
    <v>       0.66666667       0.66666667       0.32158947 </v>
    <v>       0.16666667       0.16666667       0.37354595 </v>
    <v>       0.16666667       0.50000000       0.37354595 </v>
    <v>       0.16666667       0.83333333       0.37354595 </v>
    <v>       0.50000000       0.16666667       0.37354595 </v>
    <v>       0.50000000       0.50000000       0.37354595 </v>
    <v>       0.50000000       0.83333333       0.37354595 </v>
    <v>       0.83333333       0.16666667       0.37354595 </v>
    <v>       0.83333333       0.50000000       0.37354595 </v>
    <v>       0.83333333       0.83333333       0.37354595 </v>
   </varray>
  </structure>
  <varray name="forces" >
   <v>       0.00000000      -0.00000000       0.52313300 </v>
   <v>      -0.00000000       0.00000000       0.52313300 </v>
   <v>       0.00000000      -0.00000000       0.52313300 </v>
   <v>       0.00000000      -0.00000000       0.52313300 </v>
   <v>      -0.00000000       0.00000000       0.52313300 </v>
   <v>      -0.00000000      -0.00000000       0.52313300 </v>
   <v>      -0.00000000      -0.00000000       0.52313300 </v>
   <v>       0.00000000      -0.00000000       0.52313300 </v>
   <v>       0.00000000      -0.00000000       0.52313300 </v>
   <v>      -0.00000000      -0.00000000      -0.25211738 </v>
   <v>       0.00000000       0.00000000      -0.25211738 </v>
   <v>      -0.00000000      -0.00000000      -0.25211738 </v>
   <v>       0.00000000       0.00000000      -0.25211738 </v>
   <v>       0.00000000      -0.00000000      -0.25211738 </v>
   <v>       0.00000000       0.00000000      -0.25211738 </v>
   <v>      -0.00000000      -0.00000000      -0.25211738 </v>
   <v>       0.00000000      -0.00000000      -0.25211738 </v>
   <v>      -0.00000000      -0.00000000      -0.25211738 </v>
   <v>      -0.00000000      -0.00000000       0.04587419 </v>
   <v>      -0.00000000       0.00000000       0.04587419 </v>
   <v>      -0.00000000      -0.00000000       0.04587419 </v>
   <v>      -0.00000000      -0.00000000       0.04587419 </v>
   <v>      -0.00000000       0.00000000       0.04587419 </v>
   <v>       0.00000000      -0.00000000       0.04587419 </v>
   <v>      -0.00000000      -0.00000000       0.04587419 </v>
   <v>      -0.00000000      -0.00000000       0.04587419 </v>
   <v>       0.00000000      -0.00000000       0.04587419 </v>
   <v>      -0.00000000      -0.00000000      -0.00993686 </v>
   <v>      -0.00000000       0.00000000      -0.00993686 </v>
   <v>      -0.00000000       0.00000000      -0.00993686 </v>
   <v>      -0.00000000      -0.00000000      -0.00993686 </v>
   <v>      -0.00000000      -0.00000000      -0.00993686 </v>
   <v>       0.00000000      -0.00000000      -0.00993686 </v>
   <v>      -0.00000000      -0.00000000      -0.00993686 </v>
   <v>       0.00000000       0.00000000      -0.00993686 </v>
   <v>       0.00000000       0.00000000      -0.00993686 </v>
   <v>       0.00000000      -0.00000000       0.02396401 </v>
   <v>       0.00000000      -0.00000000       0.02396401 </v>
   <v>      -0.00000000      -0.00000000       0.02396401 </v>
   <v>       0.00000000      -0.00000000       0.02396401 </v>
   <v>       0.00000000       0.00000000       0.02396401 </v>
   <v>      -0.00000000      -0.00000000       0.02396401 </v>
   <v>      -0.00000000      -0.00000000       0.02396401 </v>
   <v>       0.00000000       0.00000000       0.02396401 </v>
   <v>       0.00000000      -0.00000000       0.02396401 </v>
   <v>      -0.00000000       0.00000000      -0.07608573 </v>
   <v>       0.00000000       0.00000000      -0.07608573 </v>
   <v>      -0.00000000      -0.00000000      -0.07608573 </v>
   <v>       0.00000000      -0.00000000      -0.07608573 </v>
   <v>      -0.00000000      -0.00000000      -0.07608573 </v>
   <v>      -0.00000000       0.00000000      -0.07608573 </v>
   <v>       0.00000000      -0.00000000      -0.07608573 </v>
   <v>       0.00000000      -0.00000000      -0.07608573 </v>
   <v>       0.00000000       0.00000000      -0.07608573 </v>
   <v>       0.00000000      -0.00000000       0.14625085 </v>
   <v>       0.00000000      -0.00000000       0.14625085 </v>
   <v>      -0.00000000      -0.00000000       0.14625085 </v>
   <v>       0.00000000      -0.00000000       0.14625085 </v>
   <v>       0.00000000       0.00000000       0.14625085 </v>
   <v>       0.00000000      -0.00000000       0.14625085 </v>
   <v>       0.00000000      -0.00000000       0.14625085 </v>
   <v>       0.00000000      -0.00000000       0.14625085 </v>
   <v>       0.00000000      -0.00000000       0.14625085 </v>
   <v>       0.00000000      -0.00000000      -0.40108208 </v>
   <v>       0.00000000       0.00000000      -0.40108208 </v>
   <v>      -0.00000000      -0.00000000      -0.40108208 </v>
   <v>       0.00000000      -0.00000000      -0.40108208 </v>
   <v>      -0.00000000      -0.00000000      -0.40108208 </v>
   <v>      -0.00000000      -0.00000000      -0.40108208 </v>
   <v>      -0.00000000      -0.00000000      -0.40108208 </v>
   <v>      -0.00000000       0.00000000      -0.40108208 </v>
   <v>      -0.00000000      -0.00000000      -0.40108208 </v>
  </varray>
  <varray name="stress" >
   <v>     -44.29771687       0.00000000       0.00000000 </v>
   <v>       0.00000000     -43.68273372       0.00000000 </v>
   <v>       0.00000000       0.00000000     -25.61364432 </v>
  </varray>
  <energy>
   <i name="e_fr_energy">   -279.02004312 </i>
   <i name="e_wo_entrp">   -278.97562604 </i>
   <i name="e_0_energy">   -279.00523743 </i>
  </energy>
  <time name="totalsc"> 1032.65 1040.18</time>
 </calculation>
 <calculation>
  <scstep>
   <time name="dav">   98.37   99.01</time>
   <time name="total">  100.34  100.99</time>
   <energy>
    <i name="alphaZ">   1885.03137702 </i>
    <i name="ewald"> 372292.89553960 </i>
    <i name="hartreedc">-468365.73820877 </i>
    <i name="XCdc">   3206.57816860 </i>
    <i name="pawpsdc">  93671.22047055 </i>
    <i name="pawaedc">-101416.59402588 </i>
    <i name="eentropy">     -0.04791659 </i>
    <i name="bandstr">  -1674.02167803 </i>
    <i name="atom"> 100148.95009438 </i>
    <i name="e_fr_energy">   -251.72617912 </i>
    <i name="e_wo_entrp">   -251.67826253 </i>
    <i name="e_0_energy">   -251.71020692 </i>
   </energy>
  </scstep>
  <scstep>
   <time name="dav">  133.07  134.41</time>
   <time name="total">  135.08  136.44</time>
   <energy>
    <i name="e_fr_energy">   -252.50253571 </i>
    <i name="e_wo_entrp">   -252.45284272 </i>
    <i name="e_0_energy">   -252.48597138 </i>
   </energy>
  </scstep>
  <scstep>
   <time name="dav">   98.26   98.91</time>
   <time name="total">  100.29  100.96</time>
   <energy>
    <i name="e_fr_energy">   -252.41801630 </i>
    <i name="e_wo_entrp">   -252.36955098 </i>
    <i name="e_0_energy">   -252.40186119 </i>
   </energy>
  </scstep>
  <scstep>
   <time name="dav">  103.34  103.99</time>
   <time name="total">  105.28  105.96</time>
   <energy>
    <i name="e_fr_energy">   -252.41622014 </i>
    <i name="e_wo_entrp">   -252.36761801 </i>
    <i name="e_0_energy">   -252.40001943 </i>
   </energy>
  </scstep>
  <scstep>
   <time name="dav">   96.30   97.39</time>
   <time name="total">   98.26   99.36</time>
   <energy>
    <i name="e_fr_energy">   -252.41748494 </i>
    <i name="e_wo_entrp">   -252.36930728 </i>
    <i name="e_0_energy">   -252.40142572 </i>
   </energy>
  </scstep>
  <scstep>
   <time name="dav">  105.31  106.00</time>
   <time name="total">  107.26  107.96</time>
   <energy>
    <i name="e_fr_energy">   -252.41007743 </i>
    <i name="e_wo_entrp">   -252.36236063 </i>
    <i name="e_0_energy">   -252.39417183 </i>
   </energy>
  </scstep>
  <scstep>
   <time name="dav">  134.26  135.21</time>
   <time name="total">  136.28  137.25</time>
   <energy>
    <i name="e_fr_energy">   -252.40786710 </i>
    <i name="e_wo_entrp">   -252.36123625 </i>
    <i name="e_0_energy">   -252.39232349 </i>
   </energy>
  </scstep>
  <scstep>
   <time name="dav">   99.17  100.10</time>
   <time name="total">  101.16  102.09</time>
   <energy>
    <i name="e_fr_energy">   -252.40673331 </i>
    <i name="e_wo_entrp">   -252.35890403 </i>
    <i name="e_0_energy">   -252.39079022 </i>
   </energy>
  </scstep>
  <scstep>
   <time name="dav">   96.98   97.72</time>
   <time name="total">   99.01   99.78</time>
   <energy>
    <i name="e_fr_energy">   -252.40667329 </i>
    <i name="e_wo_entrp">   -252.35904705 </i>
    <i name="e_0_energy">   -252.39079788 </i>
   </energy>
  </scstep>
  <scstep>
   <time name="dav">   84.81   85.46</time>
   <time name="total">   84.98   85.64</time>
   <energy>
    <i name="alphaZ">   1885.03137702 </i>
    <i name="ewald"> 372292.89553960 </i>
    <i name="hartreedc">-468350.77843032 </i>
    <i name="XCdc">   3206.07916301 </i>
    <i name="pawpsdc">  93796.35702422 </i>
    <i name="pawaedc">-101544.04744275 </i>
    <i name="eentropy">     -0.04767474 </i>
    <i name="bandstr">  -1686.84631640 </i>
    <i name="atom"> 100148.95009438 </i>
    <i name="e_fr_energy">   -252.40666599 </i>
    <i name="e_wo_entrp">   -252.35899125 </i>
    <i name="e_0_energy">   -252.39077441 </i>
   </energy>
  </scstep>
  <dipole>
   <v name="dipole">      0.00000000       0.00000000       0.01664621 </v>
   <i name="Tr[quadrupol]"> -12385.33790000 </i>
   <i name="Echarged">      0.00000000 </i>
   <i name="Edipol_quadrupol">      0.00000000 </i>
   <i name="Eion">      0.00000000 </i>
  </dipole>
  <structure>
   <crystal>
    <varray name="basis" >
     <v>      10.89000034       0.00000000       0.00000000 </v>
     <v>       0.00000000       7.70039320       0.00000000 </v>
     <v>       0.00000000       0.00000000      23.98379135 </v>
    </varray>
    <i name="volume">   2011.21561690 </i>
    <varray name="rec_basis" >
     <v>       0.09182736       0.00000000       0.00000000 </v>
     <v>       0.00000000       0.12986350       0.00000000 </v>
     <v>       0.00000000       0.00000000       0.04169483 </v>
    </varray>
   </crystal>
   <varray name="positions" >
    <v>       0.00000000       0.00000000       0.00000000 </v>
    <v>       0.00000000       0.33333333       0.00000000 </v>
    <v>       0.00000000       0.66666667       0.00000000 </v>
    <v>       0.33333333       0.00000000       0.00000000 </v>
    <v>       0.33333333       0.33333333       0.00000000 </v>
    <v>       0.33333333       0.66666667       0.00000000 </v>
    <v>       0.66666667       0.00000000       0.00000000 </v>
    <v>       0.66666667       0.33333333       0.00000000 </v>
    <v>       0.66666667       0.66666667       0.00000000 </v>
    <v>       0.16666667       0.16666667       0.05351109 </v>
    <v>       0.16666667       0.50000000       0.05351109 </v>
    <v>       0.16666667       0.83333333       0.05351109 </v>
    <v>       0.50000000       0.16666667       0.05351109 </v>
    <v>       0.50000000       0.50000000       0.05351109 </v>
    <v>       0.50000000       0.83333333       0.05351109 </v>
    <v>       0.83333333       0.16666667       0.05351109 </v>
    <v>       0.83333333       0.50000000       0.05351109 </v>
    <v>       0.83333333       0.83333333       0.05351109 </v>
    <v>       0.00000000       0.00000000       0.10759291 </v>
    <v>       0.00000000       0.33333333       0.10759291 </v>
    <v>       0.00000000       0.66666667       0.10759291 </v>
    <v>       0.33333333       0.00000000       0.10759291 </v>
    <v>       0.33333333       0.33333333       0.10759291 </v>
    <v>       0.33333333       0.66666667       0.10759291 </v>
    <v>       0.66666667       0.00000000       0.10759291 </v>
    <v>       0.66666667       0.33333333       0.10759291 </v>
    <v>       0.66666667       0.66666667       0.10759291 </v>
    <v>       0.16666667       0.16666667       0.16040398 </v>
    <v>       0.16666667       0.50000000       0.16040398 </v>
    <v>       0.16666667       0.83333333       0.16040398 </v>
    <v>       0.50000000       0.16666667       0.16040398 </v>
    <v>       0.50000000       0.50000000       0.16040398 </v>
    <v>       0.50000000       0.83333333       0.16040398 </v>
    <v>       0.83333333       0.16666667       0.16040398 </v>
    <v>       0.83333333       0.50000000       0.16040398 </v>
    <v>       0.83333333       0.83333333       0.16040398 </v>
    <v>       0.00000000       0.00000000       0.21412039 </v>
    <v>      -0.00000000       0.33333333       0.21412039 </v>
    <v>       0.00000000       0.66666667       0.21412039 </v>
    <v>       0.33333333       0.00000000       0.21412039 </v>
    <v>       0.33333333       0.33333333       0.21412039 </v>
    <v>       0.33333333       0.66666667       0.21412039 </v>
    <v>       0.66666667       0.00000000       0.21412039 </v>
    <v>       0.66666667       0.33333333       0.21412039 </v>
    <v>       0.66666667       0.66666667       0.21412039 </v>
    <v>       0.16666667       0.16666667       0.26697208 </v>
    <v>       0.16666667       0.50000000       0.26697208 </v>
    <v>       0.16666667       0.83333333       0.26697208 </v>
    <v>       0.50000000       0.16666667       0.26697208 </v>
    <v>       0.50000000       0.50000000       0.26697208 </v>
    <v>       0.50000000       0.83333333       0.26697208 </v>
    <v>       0.83333333       0.16666667       0.26697208 </v>
    <v>       0.83333333       0.50000000       0.26697208 </v>
    <v>       0.83333333       0.83333333       0.26697208 </v>
    <v>      -0.00000000       0.00000000       0.32307937 </v>
    <v>      -0.00000000       0.33333333       0.32307937 </v>
    <v>      -0.00000000       0.66666667       0.32307937 </v>
    <v>       0.33333333       0.00000000       0.32307937 </v>
    <v>       0.33333333       0.33333333       0.32307937 </v>
    <v>       0.33333333       0.66666667       0.32307937 </v>
    <v>       0.66666667       0.00000000       0.32307937 </v>
    <v>       0.66666667       0.33333333       0.32307937 </v>
    <v>       0.66666667       0.66666667       0.32307937 </v>
    <v>       0.16666667       0.16666667       0.37060655 </v>
    <v>       0.16666667       0.50000000       0.37060655 </v>
    <v>       0.16666667       0.83333333       0.37060655 </v>
    <v>       0.50000000       0.16666667       0.37060655 </v>
    <v>       0.50000000       0.50000000       0.37060655 </v>
    <v>       0.50000000       0.83333333       0.37060655 </v>
    <v>       0.83333333       0.16666667       0.37060655 </v>
    <v>       0.83333333       0.50000000       0.37060655 </v>
    <v>       0.83333333       0.83333333       0.37060655 </v>
   </varray>
  </structure>
  <varray name="forces" >
   <v>       0.00000000       0.00000000       0.53720571 </v>
   <v>      -0.00000000      -0.00000000       0.53720571 </v>
   <v>       0.00000000       0.00000000       0.53720571 </v>
   <v>       0.00000000       0.00000000       0.53720571 </v>
   <v>       0.00000000      -0.00000000       0.53720571 </v>
   <v>      -0.00000000       0.00000000       0.53720571 </v>
   <v>       0.00000000       0.00000000       0.53720571 </v>
   <v>      -0.00000000      -0.00000000       0.53720571 </v>
   <v>       0.00000000       0.00000000       0.53720571 </v>
   <v>      -0.00000000      -0.00000000      -0.23959526 </v>
   <v>       0.00000000      -0.00000000      -0.23959526 </v>
   <v>      -0.00000000      -0.00000000      -0.23959526 </v>
   <v>       0.00000000       0.00000000      -0.23959526 </v>
   <v>       0.00000000       0.00000000      -0.23959526 </v>
   <v>      -0.00000000      -0.00000000      -0.23959526 </v>
   <v>       0.00000000       0.00000000      -0.23959526 </v>
   <v>       0.00000000       0.00000000      -0.23959526 </v>
   <v>       0.00000000       0.00000000      -0.23959526 </v>
   <v>       0.00000000       0.00000000      -0.02779054 </v>
   <v>       0.00000000      -0.00000000      -0.02779054 </v>
   <v>       0.00000000       0.00000000      -0.02779054 </v>
   <v>      -0.00000000       0.00000000      -0.02779054 </v>
   <v>      -0.00000000      -0.00000000      -0.02779054 </v>
   <v>      -0.00000000       0.00000000      -0.02779054 </v>
   <v>      -0.00000000       0.00000000      -0.02779054 </v>
   <v>       0.00000000      -0.00000000      -0.02779054 </v>
   <v>       0.00000000       0.00000000      -0.02779054 </v>
   <v>      -0.00000000       0.00000000       0.01191675 </v>
   <v>      -0.00000000       0.00000000       0.01191675 </v>
   <v>      -0.00000000      -0.00000000       0.01191675 </v>
   <v>       0.00000000       0.00000000       0.01191675 </v>
   <v>       0.00000000       0.00000000       0.01191675 </v>
   <v>       0.00000000       0.00000000       0.01191675 </v>
   <v>       0.00000000       0.00000000       0.01191675 </v>
   <v>       0.00000000       0.00000000       0.01191675 </v>
   <v>      -0.00000000       0.00000000       0.01191675 </v>
   <v>      -0.00000000       0.00000000       0.05580072 </v>
   <v>      -0.00000000       0.00000000       0.05580072 </v>
   <v>      -0.00000000       0.00000000       0.05580072 </v>
   <v>      -0.00000000       0.00000000       0.05580072 </v>
   <v>      -0.00000000      -0.00000000       0.05580072 </v>
   <v>       0.00000000       0.00000000       0.05580072 </v>
   <v>      -0.00000000       0.00000000       0.05580072 </v>
   <v>       0.00000000      -0.00000000       0.05580072 </v>
   <v>      -0.00000000       0.00000000       0.05580072 </v>
   <v>      -0.00000000       0.00000000      -0.11232602 </v>
   <v>       0.00000000       0.00000000      -0.11232602 </v>
   <v>      -0.00000000      -0.00000000      -0.11232602 </v>
   <v>       0.00000000       0.00000000      -0.11232602 </v>
   <v>      -0.00000000       0.00000000      -0.11232602 </v>
   <v>       0.00000000      -0.00000000      -0.11232602 </v>
   <v>       0.00000000       0.00000000      -0.11232602 </v>
   <v>       0.00000000       0.00000000      -0.11232602 </v>
   <v>      -0.00000000      -0.00000000      -0.11232602 </v>
   <v>       0.00000000       0.00000000      -0.15673666 </v>
   <v>      -0.00000000      -0.00000000      -0.15673666 </v>
   <v>      -0.00000000       0.00000000      -0.15673666 </v>
   <v>       0.00000000       0.00000000      -0.15673666 </v>
   <v>       0.00000000      -0.00000000      -0.15673666 </v>
   <v>      -0.00000000       0.00000000      -0.15673666 </v>
   <v>       0.00000000       0.00000000      -0.15673666 </v>
   <v>      -0.00000000       0.00000000      -0.15673666 </v>
   <v>       0.00000000       0.00000000      -0.15673666 </v>
   <v>      -0.00000000       0.00000000      -0.06847471 </v>
   <v>      -0.00000000       0.00000000      -0.06847471 </v>
   <v>      -0.00000000      -0.00000000      -0.06847471 </v>
   <v>       0.00000000      -0.00000000      -0.06847471 </v>
   <v>       0.00000000       0.00000000      -0.06847471 </v>
   <v>      -0.00000000       0.00000000      -0.06847471 </v>
   <v>      -0.00000000       0.00000000      -0.06847471 </v>
   <v>       0.00000000       0.00000000      -0.06847471 </v>
   <v>      -0.00000000       0.00000000      -0.06847471 </v>
  </varray>
  <varray name="stress" >
   <v>     -42.07025296       0.00000000       0.00000000 </v>
   <v>       0.00000000     -42.68552023       0.00000000 </v>
   <v>       0.00000000       0.00000000     -23.19727401 </v>
  </varray>
  <energy>
   <i name="e_fr_energy">   -279.18725674 </i>
   <i name="e_wo_entrp">   -279.13958200 </i>
   <i name="e_0_energy">   -279.17136516 </i>
  </energy>
  <time name="totalsc"> 1278.42 1288.47</time>
 </calculation>
 <calculation>
  <scstep>
   <time name="dav">   96.88   97.59</time>
   <time name="total">   98.84   99.56</time>
   <energy>
    <i name="alphaZ">   1885.03137702 </i>
    <i name="ewald"> 373114.76230654 </i>
    <i name="hartreedc">-469170.92588015 </i>
    <i name="XCdc">   3206.27697703 </i>
    <i name="pawpsdc">  93795.77342666 </i>
    <i name="pawaedc">-101543.38285546 </i>
    <i name="eentropy">     -0.04857768 </i>
    <i name="bandstr">  -1688.81365637 </i>
    <i name="atom"> 100148.95009438 </i>
    <i name="e_fr_energy">   -252.37678803 </i>
    <i name="e_wo_entrp">   -252.32821035 </i>
    <i name="e_0_energy">   -252.36059547 </i>
   </energy>
  </scstep>
  <scstep>
   <time name="dav">  125.57  126.87</time>
   <time name="total">  127.54  128.86</time>
   <energy>
    <i name="e_fr_energy">   -252.40342935 </i>
    <i name="e_wo_entrp">   -252.35517840 </i>
    <i name="e_0_energy">   -252.38734570 </i>
   </energy>
  </scstep>
  <scstep>
   <time name="dav">   95.34   95.95</time>
   <time name="total">   97.33   97.95</time>
   <energy>
    <i name="e_fr_energy">   -252.40289107 </i>
    <i name="e_wo_entrp">   -252.35460880 </i>
    <i name="e_0_energy">   -252.38679698 </i>
   </energy>
  </scstep>
  <scstep>
   <time name="dav">   97.32   98.08</time>
   <time name="total">   99.33  100.11</time>
   <energy>
    <i name="e_fr_energy">   -252.40286187 </i>
    <i name="e_wo_entrp">   -252.35444222 </i>
    <i name="e_0_energy">   -252.38672199 </i>
   </energy>
  </scstep>
  <scstep>
   <time name="dav">   93.87   94.51</time>
   <time name="total">   94.06   94.71</time>
   <energy>
    <i name="alphaZ">   1885.03137702 </i>
    <i name="ewald"> 373114.76230654 </i>
    <i name="hartreedc">-469171.82992792 </i>
    <i name="XCdc">   3206.21707536 </i>
    <i name="pawpsdc">  93810.69790230 </i>
    <i name="pawaedc">-101558.34076468 </i>
    <i name="eentropy">     -0.04821330 </i>
    <i name="bandstr">  -1687.84258395 </i>
    <i name="atom"> 100148.95009438 </i>
    <i name="e_fr_energy">   -252.40273425 </i>
    <i name="e_wo_entrp">   -252.35452095 </i>
    <i name="e_0_energy">   -252.38666315 </i>
   </energy>
  </scstep>
  <dipole>
   <v name="dipole">      0.00000000       0.00000000       0.01918702 </v>
   <i name="Tr[quadrupol]"> -12385.38318012 </i>
   <i name="Echarged">      0.00000000 </i>
   <i name="Edipol_quadrupol">      0.00000000 </i>
   <i name="Eion">      0.00000000 </i>
  </dipole>
  <structure>
   <crystal>
    <varray name="basis" >
     <v>      10.89000034       0.00000000       0.00000000 </v>
     <v>       0.00000000       7.70039320       0.00000000 </v>
     <v>       0.00000000       0.00000000      23.98379135 </v>
    </varray>
    <i name="volume">   2011.21561690 </i>
    <varray name="rec_basis" >
     <v>       0.09182736       0.00000000       0.00000000 </v>
     <v>       0.00000000       0.12986350       0.00000000 </v>
     <v>       0.00000000       0.00000000       0.04169483 </v>
    </varray>
   </crystal>
   <varray name="positions" >
[...]
       <r>    -6.1646     4.3073     5.6806 </r>
       <r>    -6.0924     5.5904     6.0845 </r>
       <r>    -6.0201     6.4020     6.5469 </r>
       <r>    -5.9479     7.3032     7.0745 </r>
       <r>    -5.8756     8.1922     7.6663 </r>
       <r>    -5.8034     8.1652     8.2562 </r>
       <r>    -5.7312     6.9140     8.7556 </r>
       <r>    -5.6589     5.4104     9.1464 </r>
       <r>    -5.5867     4.6876     9.4851 </r>
       <r>    -5.5144     4.5712     9.8153 </r>
       <r>    -5.4422     4.3718    10.1311 </r>
       <r>    -5.3700     4.3590    10.4460 </r>
       <r>    -5.2977     5.4763    10.8416 </r>
       <r>    -5.2255     7.7871    11.4041 </r>
       <r>    -5.1533    10.1539    12.1376 </r>
       <r>    -5.0810    11.3508    12.9576 </r>
       <r>    -5.0088    10.9159    13.7461 </r>
       <r>    -4.9365     9.1910    14.4101 </r>
       <r>    -4.8643     7.0395    14.9186 </r>
       <r>    -4.7921     5.4561    15.3127 </r>
       <r>    -4.7198     5.1811    15.6870 </r>
       <r>    -4.6476     6.5049    16.1569 </r>
       <r>    -4.5753     9.2702    16.8266 </r>
       <r>    -4.5031    13.0472    17.7691 </r>
       <r>    -4.4309    17.2919    19.0182 </r>
       <r>    -4.3586    21.3231    20.5586 </r>
       <r>    -4.2864    24.4410    22.3242 </r>
       <r>    -4.2142    26.2304    24.2190 </r>
       <r>    -4.1419    26.7593    26.1521 </r>
       <r>    -4.0697    26.8451    28.0913 </r>
       <r>    -3.9974    27.8161    30.1007 </r>
       <r>    -3.9252    30.0696    32.2729 </r>
       <r>    -3.8530    32.7852    34.6412 </r>
       <r>    -3.7807    36.4292    37.2728 </r>
       <r>    -3.7085    43.4101    40.4087 </r>
       <r>    -3.6362    53.8086    44.2958 </r>
       <r>    -3.5640    63.0015    48.8469 </r>
       <r>    -3.4918    66.8090    53.6731 </r>
       <r>    -3.4195    66.9657    58.5106 </r>
       <r>    -3.3473    68.1655    63.4348 </r>
       <r>    -3.2751    71.0904    68.5702 </r>
       <r>    -3.2028    71.7888    73.7561 </r>
       <r>    -3.1306    67.8646    78.6586 </r>
       <r>    -3.0583    62.4454    83.1696 </r>
       <r>    -2.9861    61.0858    87.5823 </r>
       <r>    -2.9139    66.4125    92.3798 </r>
       <r>    -2.8416    76.6475    97.9167 </r>
       <r>    -2.7694    87.9147   104.2676 </r>
       <r>    -2.6971    96.7118   111.2539 </r>
       <r>    -2.6249   101.2197   118.5658 </r>
       <r>    -2.5527   102.1735   125.9467 </r>
       <r>    -2.4804   103.1813   133.4004 </r>
       <r>    -2.4082   109.1573   141.2857 </r>
       <r>    -2.3360   122.2435   150.1164 </r>
       <r>    -2.2637   138.3381   160.1098 </r>
       <r>    -2.1915   148.8795   170.8646 </r>
       <r>    -2.1192   147.4430   181.5157 </r>
       <r>    -2.0470   135.2084   191.2829 </r>
       <r>    -1.9748   119.7470   199.9333 </r>
       <r>    -1.9025   108.1802   207.7480 </r>
       <r>    -1.8303   102.6511   215.1634 </r>
       <r>    -1.7580   102.7815   222.5882 </r>
       <r>    -1.6858   108.9835   230.4610 </r>
       <r>    -1.6136   120.0329   239.1320 </r>
       <r>    -1.5413   130.5403   248.5620 </r>
       <r>    -1.4691   135.7091   258.3654 </r>
       <r>    -1.3969   136.5738   268.2313 </r>
       <r>    -1.3246   136.8931   278.1203 </r>
       <r>    -1.2524   137.8917   288.0814 </r>
       <r>    -1.1801   139.7254   298.1749 </r>
       <r>    -1.1079   145.5011   308.6857 </r>
       <r>    -1.0357   159.1032   320.1791 </r>
       <r>    -0.9634   177.6824   333.0146 </r>
       <r>    -0.8912   188.4592   346.6286 </r>
       <r>    -0.8189   176.5806   359.3845 </r>
       <r>    -0.7467   138.6330   369.3992 </r>
       <r>    -0.6745    87.7363   375.7371 </r>
       <r>    -0.6022    43.6999   378.8939 </r>
       <r>    -0.5300    18.4630   380.2277 </r>
       <r>    -0.4578    11.0097   381.0230 </r>
       <r>    -0.3855    13.2496   381.9801 </r>
       <r>    -0.3133    17.2997   383.2298 </r>
       <r>    -0.2410    18.2598   384.5489 </r>
       <r>    -0.1688    15.0731   385.6377 </r>
       <r>    -0.0966    10.6792   386.4092 </r>
       <r>    -0.0243     8.9182   387.0534 </r>
       <r>     0.0479    10.3649   387.8022 </r>
       <r>     0.1202    12.3387   388.6935 </r>
       <r>     0.1924    12.6062   389.6041 </r>
       <r>     0.2646    11.6869   390.4484 </r>
       <r>     0.3369    11.4419   391.2749 </r>
       <r>     0.4091    12.6281   392.1872 </r>
       <r>     0.4813    14.5624   393.2391 </r>
       <r>     0.5536    16.1476   394.4056 </r>
       <r>     0.6258    16.2126   395.5768 </r>
       <r>     0.6981    13.9264   396.5828 </r>
       <r>     0.7703    10.0257   397.3070 </r>
       <r>     0.8425     6.7932   397.7978 </r>
       <r>     0.9148     5.9109   398.2248 </r>
       <r>     0.9870     6.8688   398.7210 </r>
       <r>     1.0593     8.1743   399.3115 </r>
       <r>     1.1315     9.5185   399.9991 </r>
       <r>     1.2037    11.5259   400.8317 </r>
       <r>     1.2760    13.7974   401.8284 </r>
       <r>     1.3482    14.8791   402.9032 </r>
       <r>     1.4204    14.1124   403.9227 </r>
       <r>     1.4927    12.2374   404.8067 </r>
       <r>     1.5649    10.3181   405.5521 </r>
       <r>     1.6372     8.8787   406.1934 </r>
       <r>     1.7094     7.9767   406.7697 </r>
       <r>     1.7816     7.6844   407.3248 </r>
       <r>     1.8539     8.2857   407.9233 </r>
       <r>     1.9261     9.8738   408.6366 </r>
       <r>     1.9984    11.6932   409.4813 </r>
       <r>     2.0706    12.3813   410.3757 </r>
       <r>     2.1428    11.6291   411.2158 </r>
       <r>     2.2151    10.9836   412.0092 </r>
       <r>     2.2873    11.9148   412.8699 </r>
       <r>     2.3595    13.8573   413.8710 </r>
       <r>     2.4318    15.1263   414.9637 </r>
       <r>     2.5040    14.8236   416.0345 </r>
       <r>     2.5763    13.1863   416.9871 </r>
       <r>     2.6485    11.1711   417.7940 </r>
       <r>     2.7207    10.0400   418.5193 </r>
       <r>     2.7930    10.3577   419.2675 </r>
       <r>     2.8652    11.5352   420.1008 </r>
       <r>     2.9375    12.7880   421.0246 </r>
       <r>     3.0097    13.6421   422.0101 </r>
       <r>     3.0819    13.4194   422.9795 </r>
       <r>     3.1542    11.5452   423.8135 </r>
       <r>     3.2264     8.6982   424.4418 </r>
       <r>     3.2986     6.6640   424.9232 </r>
       <r>     3.3709     6.3878   425.3847 </r>
       <r>     3.4431     6.8822   425.8818 </r>
       <r>     3.5154     6.9312   426.3825 </r>
       <r>     3.5876     6.9353   426.8835 </r>
       <r>     3.6598     7.8960   427.4539 </r>
       <r>     3.7321     9.6661   428.1522 </r>
       <r>     3.8043    11.4680   428.9806 </r>
       <r>     3.8766    13.1144   429.9280 </r>
       <r>     3.9488    14.6306   430.9849 </r>
       <r>     4.0210    15.4620   432.1018 </r>
       <r>     4.0933    14.9305   433.1804 </r>
       <r>     4.1655    13.0252   434.1213 </r>
       <r>     4.2378    10.1464   434.8543 </r>
       <r>     4.3100     6.6712   435.3362 </r>
       <r>     4.3822     3.4699   435.5868 </r>
       <r>     4.4545     2.1211   435.7401 </r>
       <r>     4.5267     3.7240   436.0091 </r>
       <r>     4.5989     7.6907   436.5647 </r>
       <r>     4.6712    11.8701   437.4221 </r>
       <r>     4.7434    13.7721   438.4170 </r>
       <r>     4.8157    12.2995   439.3055 </r>
       <r>     4.8879     8.8047   439.9415 </r>
       <r>     4.9601     5.9778   440.3734 </r>
       <r>     5.0324     5.4726   440.7687 </r>
       <r>     5.1046     7.0091   441.2750 </r>
       <r>     5.1769     9.4258   441.9559 </r>
       <r>     5.2491    11.7040   442.8014 </r>
       <r>     5.3213    13.2018   443.7551 </r>
       <r>     5.3936    13.9597   444.7635 </r>
       <r>     5.4658    14.7981   445.8325 </r>
       <r>     5.5380    16.2818   447.0087 </r>
       <r>     5.6103    17.8070   448.2950 </r>
       <r>     5.6825    18.4292   449.6263 </r>
       <r>     5.7548    17.9177   450.9207 </r>
       <r>     5.8270    16.3281   452.1002 </r>
       <r>     5.8992    13.7774   453.0955 </r>
       <r>     5.9715    11.4111   453.9198 </r>
       <r>     6.0437    11.1309   454.7239 </r>
       <r>     6.1160    13.4555   455.6959 </r>
       <r>     6.1882    16.6888   456.9014 </r>
       <r>     6.2604    18.8630   458.2641 </r>
       <r>     6.3327    19.7153   459.6883 </r>
       <r>     6.4049    20.1064   461.1407 </r>
       <r>     6.4771    20.2926   462.6066 </r>
       <r>     6.5494    19.8855   464.0431 </r>
       <r>     6.6216    19.0200   465.4171 </r>
       <r>     6.6939    18.1954   466.7315 </r>
       <r>     6.7661    17.1162   467.9680 </r>
       <r>     6.8383    15.2163   469.0672 </r>
       <r>     6.9106    13.1533   470.0174 </r>
       <r>     6.9828    11.8867   470.8760 </r>
       <r>     7.0551    10.7761   471.6545 </r>
       <r>     7.1273     8.7852   472.2891 </r>
       <r>     7.1995     6.9059   472.7880 </r>
       <r>     7.2718     7.3842   473.3214 </r>
       <r>     7.3440    11.0541   474.1199 </r>
       <r>     7.4162    17.0323   475.3503 </r>
       <r>     7.4885    24.3340   477.1082 </r>
       <r>     7.5607    31.4603   479.3808 </r>
       <r>     7.6330    35.0591   481.9134 </r>
       <r>     7.7052    32.4706   484.2591 </r>
       <r>     7.7774    25.5487   486.1047 </r>
       <r>     7.8497    18.9162   487.4711 </r>
       <r>     7.9219    14.8716   488.5454 </r>
       <r>     7.9942    12.6250   489.4575 </r>
       <r>     8.0664    11.5434   490.2913 </r>
       <r>     8.1386    12.0511   491.1619 </r>
       <r>     8.2109    13.7314   492.1538 </r>
       <r>     8.2831    15.2373   493.2546 </r>
       <r>     8.3553    16.0562   494.4144 </r>
       <r>     8.4276    16.8344   495.6305 </r>
       <r>     8.4998    18.0640   496.9354 </r>
       <r>     8.5721    19.1053   498.3156 </r>
       <r>     8.6443    19.0282   499.6901 </r>
       <r>     8.7165    18.3869   501.0184 </r>
       <r>     8.7888    18.6810   502.3679 </r>
       <r>     8.8610    19.8395   503.8010 </r>
       <r>     8.9333    20.2942   505.2671 </r>
       <r>     9.0055    19.5499   506.6793 </r>
       <r>     9.0777    18.5054   508.0161 </r>
       <r>     9.1500    17.4576   509.2772 </r>
       <r>     9.2222    15.5491   510.4005 </r>
       <r>     9.2944    12.0712   511.2725 </r>
       <r>     9.3667     7.4932   511.8138 </r>
       <r>     9.4389     3.2383   512.0477 </r>
       <r>     9.5112     0.5474   512.0873 </r>
       <r>     9.5834    -0.4385   512.0556 </r>
       <r>     9.6556    -0.4494   512.0231 </r>
       <r>     9.7279    -0.2240   512.0069 </r>
       <r>     9.8001    -0.0746   512.0016 </r>
       <r>     9.8724    -0.0179   512.0003 </r>
       <r>     9.9446    -0.0032   512.0000 </r>
       <r>    10.0168    -0.0004   512.0000 </r>
       <r>    10.0891    -0.0000   512.0000 </r>
       <r>    10.1613    -0.0000   512.0000 </r>
       <r>    10.2335    -0.0000   512.0000 </r>
       <r>    10.3058    -0.0000   512.0000 </r>
       <r>    10.3780    -0.0000   512.0000 </r>
       <r>    10.4503    -0.0000   512.0000 </r>
       <r>    10.5225    -0.0000   512.0000 </r>
       <r>    10.5947    -0.0000   512.0000 </r>
       <r>    10.6670     0.0000   512.0000 </r>
       <r>    10.7392     0.0000   512.0000 </r>
       <r>    10.8115     0.0000   512.0000 </r>
       <r>    10.8837     0.0000   512.0000 </r>
       <r>    10.9559     0.0000   512.0000 </r>
       <r>    11.0282     0.0000   512.0000 </r>
       <r>    11.1004     0.0000   512.0000 </r>
       <r>    11.1726     0.0000   512.0000 </r>
       <r>    11.2449     0.0000   512.0000 </r>
       <r>    11.3171     0.0000   512.0000 </r>
      </set>
     </set>
    </array>
   </total>
  </dos>
 </calculation>
 <structure name="finalpos" >
  <crystal>
   <varray name="basis" >
    <v>      10.89000034       0.00000000       0.00000000 </v>
    <v>       0.00000000       7.70039320       0.00000000 </v>
    <v>       0.00000000       0.00000000      23.98379135 </v>
   </varray>
   <i name="volume">   2011.21561690 </i>
   <varray name="rec_basis" >
    <v>       0.09182736       0.00000000       0.00000000 </v>
    <v>       0.00000000       0.12986350       0.00000000 </v>
    <v>       0.00000000       0.00000000       0.04169483 </v>
   </varray>
  </crystal>
  <varray name="positions" >
   <v>       0.00000000       0.00000000       0.00000000 </v>
   <v>       0.00000000       0.33333333       0.00000000 </v>
   <v>       0.00000000       0.66666667       0.00000000 </v>
   <v>       0.33333333       0.00000000       0.00000000 </v>
   <v>       0.33333333       0.33333333       0.00000000 </v>
   <v>       0.33333333       0.66666667       0.00000000 </v>
   <v>       0.66666667       0.00000000       0.00000000 </v>
   <v>       0.66666667       0.33333333       0.00000000 </v>
   <v>       0.66666667       0.66666667       0.00000000 </v>
   <v>       0.16666667       0.16666667       0.05351109 </v>
   <v>       0.16666667       0.50000000       0.05351109 </v>
   <v>       0.16666667       0.83333333       0.05351109 </v>
   <v>       0.50000000       0.16666667       0.05351109 </v>
   <v>       0.50000000       0.50000000       0.05351109 </v>
   <v>       0.50000000       0.83333333       0.05351109 </v>
   <v>       0.83333333       0.16666667       0.05351109 </v>
   <v>       0.83333333       0.50000000       0.05351109 </v>
   <v>       0.83333333       0.83333333       0.05351109 </v>
   <v>       0.00000000       0.00000000       0.10576577 </v>
   <v>       0.00000000       0.33333333       0.10576577 </v>
   <v>       0.00000000       0.66666667       0.10576577 </v>
   <v>       0.33333333       0.00000000       0.10576577 </v>
   <v>       0.33333333       0.33333333       0.10576577 </v>
   <v>       0.33333333       0.66666667       0.10576577 </v>
   <v>       0.66666667       0.00000000       0.10576577 </v>
   <v>       0.66666667       0.33333333       0.10576577 </v>
   <v>       0.66666667       0.66666667       0.10576577 </v>
   <v>       0.16666667       0.16666667       0.15812704 </v>
   <v>       0.16666667       0.50000000       0.15812704 </v>
   <v>       0.16666667       0.83333333       0.15812704 </v>
   <v>       0.50000000       0.16666667       0.15812704 </v>
   <v>       0.50000000       0.50000000       0.15812704 </v>
   <v>       0.50000000       0.83333333       0.15812704 </v>
   <v>       0.83333333       0.16666667       0.15812704 </v>
   <v>       0.83333333       0.50000000       0.15812704 </v>
   <v>       0.83333333       0.83333333       0.15812704 </v>
   <v>      -0.00000000       0.00000000       0.21105409 </v>
   <v>      -0.00000000       0.33333333       0.21105409 </v>
   <v>       0.00000000       0.66666667       0.21105409 </v>
   <v>       0.33333333       0.00000000       0.21105409 </v>
   <v>       0.33333333       0.33333333       0.21105409 </v>
   <v>       0.33333333       0.66666667       0.21105409 </v>
   <v>       0.66666667       0.00000000       0.21105409 </v>
   <v>       0.66666667       0.33333333       0.21105409 </v>
   <v>       0.66666667       0.66666667       0.21105409 </v>
   <v>       0.16666667       0.16666667       0.26248149 </v>
   <v>       0.16666667       0.50000000       0.26248149 </v>
   <v>       0.16666667       0.83333333       0.26248149 </v>
   <v>       0.50000000       0.16666667       0.26248149 </v>
   <v>       0.50000000       0.50000000       0.26248149 </v>
   <v>       0.50000000       0.83333333       0.26248149 </v>
   <v>       0.83333333       0.16666667       0.26248149 </v>
   <v>       0.83333333       0.50000000       0.26248149 </v>
   <v>       0.83333333       0.83333333       0.26248149 </v>
   <v>       0.00000000       0.00000000       0.31745812 </v>
   <v>      -0.00000000       0.33333333       0.31745812 </v>
   <v>       0.00000000       0.66666667       0.31745812 </v>
   <v>       0.33333333       0.00000000       0.31745812 </v>
   <v>       0.33333333       0.33333333       0.31745812 </v>
   <v>       0.33333333       0.66666667       0.31745812 </v>
   <v>       0.66666667      -0.00000000       0.31745812 </v>
   <v>       0.66666667       0.33333333       0.31745812 </v>
   <v>       0.66666667       0.66666667       0.31745812 </v>
   <v>       0.16666667       0.16666667       0.36526584 </v>
   <v>       0.16666667       0.50000000       0.36526584 </v>
   <v>       0.16666667       0.83333333       0.36526584 </v>
   <v>       0.50000000       0.16666667       0.36526584 </v>
   <v>       0.50000000       0.50000000       0.36526584 </v>
   <v>       0.50000000       0.83333333       0.36526584 </v>
   <v>       0.83333333       0.16666667       0.36526584 </v>
   <v>       0.83333333       0.50000000       0.36526584 </v>
   <v>       0.83333333       0.83333333       0.36526584 </v>
  </varray>
  <varray name="selective"  type="logical" >
   <v type="logical" >  F  F  F </v>
   <v type="logical" >  F  F  F </v>
   <v type="logical" >  F  F  F </v>
   <v type="logical" >  F  F  F </v>
   <v type="logical" >  F  F  F </v>
   <v type="logical" >  F  F  F </v>
   <v type="logical" >  F  F  F </v>
   <v type="logical" >  F  F  F </v>
   <v type="logical" >  F  F  F </v>
   <v type="logical" >  F  F  F </v>
   <v type="logical" >  F  F  F </v>
   <v type="logical" >  F  F  F </v>
   <v type="logical" >  F  F  F </v>
   <v type="logical" >  F  F  F </v>
   <v type="logical" >  F  F  F </v>
   <v type="logical" >  F  F  F </v>
   <v type="logical" >  F  F  F </v>
   <v type="logical" >  F  F  F </v>
   <v type="logical" >  T  T  T </v>
   <v type="logical" >  T  T  T </v>
   <v type="logical" >  T  T  T </v>
   <v type="logical" >  T  T  T </v>
   <v type="logical" >  T  T  T </v>
   <v type="logical" >  T  T  T </v>
   <v type="logical" >  T  T  T </v>
   <v type="logical" >  T  T  T </v>
   <v type="logical" >  T  T  T </v>
   <v type="logical" >  T  T  T </v>
   <v type="logical" >  T  T  T </v>
   <v type="logical" >  T  T  T </v>
   <v type="logical" >  T  T  T </v>
   <v type="logical" >  T  T  T </v>
   <v type="logical" >  T  T  T </v>
   <v type="logical" >  T  T  T </v>
   <v type="logical" >  T  T  T </v>
   <v type="logical" >  T  T  T </v>
   <v type="logical" >  T  T  T </v>
   <v type="logical" >  T  T  T </v>
   <v type="logical" >  T  T  T </v>
   <v type="logical" >  T  T  T </v>
   <v type="logical" >  T  T  T </v>
   <v type="logical" >  T  T  T </v>
   <v type="logical" >  T  T  T </v>
   <v type="logical" >  T  T  T </v>
   <v type="logical" >  T  T  T </v>
   <v type="logical" >  T  T  T </v>
   <v type="logical" >  T  T  T </v>
   <v type="logical" >  T  T  T </v>
   <v type="logical" >  T  T  T </v>
   <v type="logical" >  T  T  T </v>
   <v type="logical" >  T  T  T </v>
   <v type="logical" >  T  T  T </v>
   <v type="logical" >  T  T  T </v>
   <v type="logical" >  T  T  T </v>
   <v type="logical" >  T  T  T </v>
   <v type="logical" >  T  T  T </v>
   <v type="logical" >  T  T  T </v>
   <v type="logical" >  T  T  T </v>
   <v type="logical" >  T  T  T </v>
   <v type="logical" >  T  T  T </v>
   <v type="logical" >  T  T  T </v>
   <v type="logical" >  T  T  T </v>
   <v type="logical" >  T  T  T </v>
   <v type="logical" >  T  T  T </v>
   <v type="logical" >  T  T  T </v>
   <v type="logical" >  T  T  T </v>
   <v type="logical" >  T  T  T </v>
   <v type="logical" >  T  T  T </v>
   <v type="logical" >  T  T  T </v>
   <v type="logical" >  T  T  T </v>
   <v type="logical" >  T  T  T </v>
   <v type="logical" >  T  T  T </v>
  </varray>
  <nose>
   <v>      -3.00000000       0.00000000       0.00010000       0.00010000 </v>
  </nose>
 </structure>
</modeling>
