unknown system                          
           1
    10.890000    0.000000    0.000000
     0.000000    7.700393    0.000000
     0.000000    0.000000   23.983791
   Cu
    72
Direct configuration=     1
   0.00000000  0.00000000  0.00000000
   0.00000000  0.33333333  0.00000000
   0.00000000  0.66666667  0.00000000
   0.33333333  0.00000000  0.00000000
   0.33333333  0.33333333  0.00000000
   0.33333333  0.66666667  0.00000000
   0.66666667  0.00000000  0.00000000
   0.66666667  0.33333333  0.00000000
   0.66666667  0.66666667  0.00000000
   0.16666667  0.16666667  0.05351109
   0.16666667  0.50000000  0.05351109
   0.16666667  0.83333333  0.05351109
   0.50000000  0.16666667  0.05351109
   0.50000000  0.50000000  0.05351109
   0.50000000  0.83333333  0.05351109
   0.83333333  0.16666667  0.05351109
   0.83333333  0.50000000  0.05351109
   0.83333333  0.83333333  0.05351109
   0.00000000  0.00000000  0.10702218
   0.00000000  0.33333333  0.10702218
   0.00000000  0.66666667  0.10702218
   0.33333333  0.00000000  0.10702218
   0.33333333  0.33333333  0.10702218
   0.33333333  0.66666667  0.10702218
   0.66666667  0.00000000  0.10702218
   0.66666667  0.33333333  0.10702218
   0.66666667  0.66666667  0.10702218
   0.16666667  0.16666667  0.16053327
   0.16666667  0.50000000  0.16053327
   0.16666667  0.83333333  0.16053327
   0.50000000  0.16666667  0.16053327
   0.50000000  0.50000000  0.16053327
   0.50000000  0.83333333  0.16053327
   0.83333333  0.16666667  0.16053327
   0.83333333  0.50000000  0.16053327
   0.83333333  0.83333333  0.16053327
   0.00000000  0.00000000  0.21404436
   0.00000000  0.33333333  0.21404436
   0.00000000  0.66666667  0.21404436
   0.33333333  0.00000000  0.21404436
   0.33333333  0.33333333  0.21404436
   0.33333333  0.66666667  0.21404436
   0.66666667  0.00000000  0.21404436
   0.66666667  0.33333333  0.21404436
   0.66666667  0.66666667  0.21404436
   0.16666667  0.16666667  0.26755545
   0.16666667  0.50000000  0.26755545
   0.16666667  0.83333333  0.26755545
   0.50000000  0.16666667  0.26755545
   0.50000000  0.50000000  0.26755545
   0.50000000  0.83333333  0.26755545
   0.83333333  0.16666667  0.26755545
   0.83333333  0.50000000  0.26755545
   0.83333333  0.83333333  0.26755545
   0.00000000  0.00000000  0.32106654
   0.00000000  0.33333333  0.32106654
   0.00000000  0.66666667  0.32106654
   0.33333333  0.00000000  0.32106654
   0.33333333  0.33333333  0.32106654
   0.33333333  0.66666667  0.32106654
   0.66666667  0.00000000  0.32106654
   0.66666667  0.33333333  0.32106654
   0.66666667  0.66666667  0.32106654
   0.16666667  0.16666667  0.37457763
   0.16666667  0.50000000  0.37457763
   0.16666667  0.83333333  0.37457763
   0.50000000  0.16666667  0.37457763
   0.50000000  0.50000000  0.37457763
   0.50000000  0.83333333  0.37457763
   0.83333333  0.16666667  0.37457763
   0.83333333  0.50000000  0.37457763
   0.83333333  0.83333333  0.37457763
Direct configuration=     2
   0.00000000  0.00000000  0.00000000
   0.00000000  0.33333333  0.00000000
   0.00000000  0.66666667  0.00000000
   0.33333333  0.00000000  0.00000000
   0.33333333  0.33333333  0.00000000
   0.33333333  0.66666667  0.00000000
   0.66666667  0.00000000  0.00000000
   0.66666667  0.33333333  0.00000000
   0.66666667  0.66666667  0.00000000
   0.16666667  0.16666667  0.05351109
   0.16666667  0.50000000  0.05351109
   0.16666667  0.83333333  0.05351109
   0.50000000  0.16666667  0.05351109
   0.50000000  0.50000000  0.05351109
   0.50000000  0.83333333  0.05351109
   0.83333333  0.16666667  0.05351109
   0.83333333  0.50000000  0.05351109
   0.83333333  0.83333333  0.05351109
   0.00000000  0.00000000  0.10717046
   0.00000000  0.33333333  0.10717046
   0.00000000  0.66666667  0.10717046
   0.33333333  0.00000000  0.10717046
   0.33333333  0.33333333  0.10717046
   0.33333333  0.66666667  0.10717046
   0.66666667  0.00000000  0.10717046
   0.66666667  0.33333333  0.10717046
   0.66666667  0.66666667  0.10717046
   0.16666667  0.16666667  0.16049968
   0.16666667  0.50000000  0.16049968
   0.16666667  0.83333333  0.16049968
   0.50000000  0.16666667  0.16049968
   0.50000000  0.50000000  0.16049968
   0.50000000  0.83333333  0.16049968
   0.83333333  0.16666667  0.16049968
   0.83333333  0.50000000  0.16049968
   0.83333333  0.83333333  0.16049968
   0.00000000  0.00000000  0.21406411
  -0.00000000  0.33333333  0.21406411
   0.00000000  0.66666667  0.21406411
   0.33333333  0.00000000  0.21406411
   0.33333333  0.33333333  0.21406411
   0.33333333  0.66666667  0.21406411
   0.66666667  0.00000000  0.21406411
   0.66666667  0.33333333  0.21406411
   0.66666667  0.66666667  0.21406411
   0.16666667  0.16666667  0.26740389
   0.16666667  0.50000000  0.26740389
   0.16666667  0.83333333  0.26740389
   0.50000000  0.16666667  0.26740389
   0.50000000  0.50000000  0.26740389
   0.50000000  0.83333333  0.26740389
   0.83333333  0.16666667  0.26740389
   0.83333333  0.50000000  0.26740389
   0.83333333  0.83333333  0.26740389
  -0.00000000  0.00000000  0.32158947
  -0.00000000  0.33333333  0.32158947
  -0.00000000  0.66666667  0.32158947
   0.33333333  0.00000000  0.32158947
   0.33333333  0.33333333  0.32158947
   0.33333333  0.66666667  0.32158947
   0.66666667  0.00000000  0.32158947
   0.66666667  0.33333333  0.32158947
   0.66666667  0.66666667  0.32158947
   0.16666667  0.16666667  0.37354595
   0.16666667  0.50000000  0.37354595
   0.16666667  0.83333333  0.37354595
   0.50000000  0.16666667  0.37354595
   0.50000000  0.50000000  0.37354595
   0.50000000  0.83333333  0.37354595
   0.83333333  0.16666667  0.37354595
   0.83333333  0.50000000  0.37354595
   0.83333333  0.83333333  0.37354595
Direct configuration=     3
   0.00000000  0.00000000  0.00000000
   0.00000000  0.33333333  0.00000000
   0.00000000  0.66666667  0.00000000
   0.33333333  0.00000000  0.00000000
   0.33333333  0.33333333  0.00000000
   0.33333333  0.66666667  0.00000000
   0.66666667  0.00000000  0.00000000
   0.66666667  0.33333333  0.00000000
   0.66666667  0.66666667  0.00000000
   0.16666667  0.16666667  0.05351109
   0.16666667  0.50000000  0.05351109
   0.16666667  0.83333333  0.05351109
   0.50000000  0.16666667  0.05351109
   0.50000000  0.50000000  0.05351109
   0.50000000  0.83333333  0.05351109
   0.83333333  0.16666667  0.05351109
   0.83333333  0.50000000  0.05351109
   0.83333333  0.83333333  0.05351109
   0.00000000  0.00000000  0.10759291
   0.00000000  0.33333333  0.10759291
   0.00000000  0.66666667  0.10759291
   0.33333333  0.00000000  0.10759291
   0.33333333  0.33333333  0.10759291
   0.33333333  0.66666667  0.10759291
   0.66666667  0.00000000  0.10759291
   0.66666667  0.33333333  0.10759291
   0.66666667  0.66666667  0.10759291
   0.16666667  0.16666667  0.16040398
   0.16666667  0.50000000  0.16040398
   0.16666667  0.83333333  0.16040398
   0.50000000  0.16666667  0.16040398
   0.50000000  0.50000000  0.16040398
   0.50000000  0.83333333  0.16040398
   0.83333333  0.16666667  0.16040398
   0.83333333  0.50000000  0.16040398
   0.83333333  0.83333333  0.16040398
   0.00000000  0.00000000  0.21412039
  -0.00000000  0.33333333  0.21412039
   0.00000000  0.66666667  0.21412039
   0.33333333  0.00000000  0.21412039
   0.33333333  0.33333333  0.21412039
   0.33333333  0.66666667  0.21412039
   0.66666667  0.00000000  0.21412039
   0.66666667  0.33333333  0.21412039
   0.66666667  0.66666667  0.21412039
   0.16666667  0.16666667  0.26697208
   0.16666667  0.50000000  0.26697208
   0.16666667  0.83333333  0.26697208
   0.50000000  0.16666667  0.26697208
   0.50000000  0.50000000  0.26697208
   0.50000000  0.83333333  0.26697208
   0.83333333  0.16666667  0.26697208
   0.83333333  0.50000000  0.26697208
   0.83333333  0.83333333  0.26697208
  -0.00000000  0.00000000  0.32307937
  -0.00000000  0.33333333  0.32307937
  -0.00000000  0.66666667  0.32307937
   0.33333333  0.00000000  0.32307937
   0.33333333  0.33333333  0.32307937
   0.33333333  0.66666667  0.32307937
   0.66666667  0.00000000  0.32307937
   0.66666667  0.33333333  0.32307937
   0.66666667  0.66666667  0.32307937
   0.16666667  0.16666667  0.37060655
   0.16666667  0.50000000  0.37060655
   0.16666667  0.83333333  0.37060655
   0.50000000  0.16666667  0.37060655
   0.50000000  0.50000000  0.37060655
   0.50000000  0.83333333  0.37060655
   0.83333333  0.16666667  0.37060655
   0.83333333  0.50000000  0.37060655
   0.83333333  0.83333333  0.37060655
Direct configuration=     4
   0.00000000  0.00000000  0.00000000
   0.00000000  0.33333333  0.00000000
   0.00000000  0.66666667  0.00000000
   0.33333333  0.00000000  0.00000000
   0.33333333  0.33333333  0.00000000
   0.33333333  0.66666667  0.00000000
   0.66666667  0.00000000  0.00000000
   0.66666667  0.33333333  0.00000000
   0.66666667  0.66666667  0.00000000
   0.16666667  0.16666667  0.05351109
   0.16666667  0.50000000  0.05351109
   0.16666667  0.83333333  0.05351109
   0.50000000  0.16666667  0.05351109
   0.50000000  0.50000000  0.05351109
   0.50000000  0.83333333  0.05351109
   0.83333333  0.16666667  0.05351109
   0.83333333  0.50000000  0.05351109
   0.83333333  0.83333333  0.05351109
   0.00000000  0.00000000  0.10753561
   0.00000000  0.33333333  0.10753561
   0.00000000  0.66666667  0.10753561
   0.33333333  0.00000000  0.10753561
   0.33333333  0.33333333  0.10753561
   0.33333333  0.66666667  0.10753561
   0.66666667  0.00000000  0.10753561
   0.66666667  0.33333333  0.10753561
   0.66666667  0.66666667  0.10753561
   0.16666667  0.16666667  0.16043471
   0.16666667  0.50000000  0.16043471
   0.16666667  0.83333333  0.16043471
   0.50000000  0.16666667  0.16043471
   0.50000000  0.50000000  0.16043471
   0.50000000  0.83333333  0.16043471
   0.83333333  0.16666667  0.16043471
   0.83333333  0.50000000  0.16043471
   0.83333333  0.83333333  0.16043471
  -0.00000000  0.00000000  0.21430065
  -0.00000000  0.33333333  0.21430065
   0.00000000  0.66666667  0.21430065
   0.33333333  0.00000000  0.21430065
   0.33333333  0.33333333  0.21430065
   0.33333333  0.66666667  0.21430065
   0.66666667  0.00000000  0.21430065
   0.66666667  0.33333333  0.21430065
   0.66666667  0.66666667  0.21430065
   0.16666667  0.16666667  0.26658626
   0.16666667  0.50000000  0.26658626
   0.16666667  0.83333333  0.26658626
   0.50000000  0.16666667  0.26658626
   0.50000000  0.50000000  0.26658626
   0.50000000  0.83333333  0.26658626
   0.83333333  0.16666667  0.26658626
   0.83333333  0.50000000  0.26658626
   0.83333333  0.83333333  0.26658626
  -0.00000000  0.00000000  0.32269185
  -0.00000000  0.33333333  0.32269185
  -0.00000000  0.66666667  0.32269185
   0.33333333  0.00000000  0.32269185
   0.33333333  0.33333333  0.32269185
   0.33333333  0.66666667  0.32269185
   0.66666667  0.00000000  0.32269185
   0.66666667  0.33333333  0.32269185
   0.66666667  0.66666667  0.32269185
   0.16666667  0.16666667  0.37017844
   0.16666667  0.50000000  0.37017844
   0.16666667  0.83333333  0.37017844
   0.50000000  0.16666667  0.37017844
   0.50000000  0.50000000  0.37017844
   0.50000000  0.83333333  0.37017844
   0.83333333  0.16666667  0.37017844
   0.83333333  0.50000000  0.37017844
   0.83333333  0.83333333  0.37017844
Direct configuration=     5
   0.00000000  0.00000000  0.00000000
   0.00000000  0.33333333  0.00000000
   0.00000000  0.66666667  0.00000000
   0.33333333  0.00000000  0.00000000
   0.33333333  0.33333333  0.00000000
   0.33333333  0.66666667  0.00000000
   0.66666667  0.00000000  0.00000000
   0.66666667  0.33333333  0.00000000
   0.66666667  0.66666667  0.00000000
   0.16666667  0.16666667  0.05351109
   0.16666667  0.50000000  0.05351109
   0.16666667  0.83333333  0.05351109
   0.50000000  0.16666667  0.05351109
   0.50000000  0.50000000  0.05351109
   0.50000000  0.83333333  0.05351109
   0.83333333  0.16666667  0.05351109
   0.83333333  0.50000000  0.05351109
   0.83333333  0.83333333  0.05351109
   0.00000000  0.00000000  0.10747516
   0.00000000  0.33333333  0.10747516
   0.00000000  0.66666667  0.10747516
   0.33333333  0.00000000  0.10747516
   0.33333333  0.33333333  0.10747516
   0.33333333  0.66666667  0.10747516
   0.66666667  0.00000000  0.10747516
   0.66666667  0.33333333  0.10747516
   0.66666667  0.66666667  0.10747516
   0.16666667  0.16666667  0.16046713
   0.16666667  0.50000000  0.16046713
   0.16666667  0.83333333  0.16046713
   0.50000000  0.16666667  0.16046713
   0.50000000  0.50000000  0.16046713
   0.50000000  0.83333333  0.16046713
   0.83333333  0.16666667  0.16046713
   0.83333333  0.50000000  0.16046713
   0.83333333  0.83333333  0.16046713
  -0.00000000  0.00000000  0.21449083
  -0.00000000  0.33333333  0.21449083
   0.00000000  0.66666667  0.21449083
   0.33333333  0.00000000  0.21449083
   0.33333333  0.33333333  0.21449083
   0.33333333  0.66666667  0.21449083
   0.66666667  0.00000000  0.21449083
   0.66666667  0.33333333  0.21449083
   0.66666667  0.66666667  0.21449083
   0.16666667  0.16666667  0.26617919
   0.16666667  0.50000000  0.26617919
   0.16666667  0.83333333  0.26617919
   0.50000000  0.16666667  0.26617919
   0.50000000  0.50000000  0.26617919
   0.50000000  0.83333333  0.26617919
   0.83333333  0.16666667  0.26617919
   0.83333333  0.50000000  0.26617919
   0.83333333  0.83333333  0.26617919
  -0.00000000  0.00000000  0.32228298
  -0.00000000  0.33333333  0.32228298
  -0.00000000  0.66666667  0.32228298
   0.33333333  0.00000000  0.32228298
   0.33333333  0.33333333  0.32228298
   0.33333333  0.66666667  0.32228298
   0.66666667  0.00000000  0.32228298
   0.66666667  0.33333333  0.32228298
   0.66666667  0.66666667  0.32228298
   0.16666667  0.16666667  0.36972674
   0.16666667  0.50000000  0.36972674
   0.16666667  0.83333333  0.36972674
   0.50000000  0.16666667  0.36972674
   0.50000000  0.50000000  0.36972674
   0.50000000  0.83333333  0.36972674
   0.83333333  0.16666667  0.36972674
   0.83333333  0.50000000  0.36972674
   0.83333333  0.83333333  0.36972674
Direct configuration=     6
   0.00000000  0.00000000  0.00000000
   0.00000000  0.33333333  0.00000000
   0.00000000  0.66666667  0.00000000
   0.33333333  0.00000000  0.00000000
   0.33333333  0.33333333  0.00000000
   0.33333333  0.66666667  0.00000000
   0.66666667  0.00000000  0.00000000
   0.66666667  0.33333333  0.00000000
   0.66666667  0.66666667  0.00000000
   0.16666667  0.16666667  0.05351109
   0.16666667  0.50000000  0.05351109
   0.16666667  0.83333333  0.05351109
   0.50000000  0.16666667  0.05351109
   0.50000000  0.50000000  0.05351109
   0.50000000  0.83333333  0.05351109
   0.83333333  0.16666667  0.05351109
   0.83333333  0.50000000  0.05351109
   0.83333333  0.83333333  0.05351109
   0.00000000  0.00000000  0.10735425
   0.00000000  0.33333333  0.10735425
   0.00000000  0.66666667  0.10735425
   0.33333333  0.00000000  0.10735425
   0.33333333  0.33333333  0.10735425
   0.33333333  0.66666667  0.10735425
   0.66666667  0.00000000  0.10735425
   0.66666667  0.33333333  0.10735425
   0.66666667  0.66666667  0.10735425
   0.16666667  0.16666667  0.16053198
   0.16666667  0.50000000  0.16053198
   0.16666667  0.83333333  0.16053198
   0.50000000  0.16666667  0.16053198
   0.50000000  0.50000000  0.16053198
   0.50000000  0.83333333  0.16053198
   0.83333333  0.16666667  0.16053198
   0.83333333  0.50000000  0.16053198
   0.83333333  0.83333333  0.16053198
  -0.00000000  0.00000000  0.21487121
  -0.00000000  0.33333333  0.21487121
   0.00000000  0.66666667  0.21487121
   0.33333333  0.00000000  0.21487121
   0.33333333  0.33333333  0.21487121
   0.33333333  0.66666667  0.21487121
   0.66666667  0.00000000  0.21487121
   0.66666667  0.33333333  0.21487121
   0.66666667  0.66666667  0.21487121
   0.16666667  0.16666667  0.26536505
   0.16666667  0.50000000  0.26536505
   0.16666667  0.83333333  0.26536505
   0.50000000  0.16666667  0.26536505
   0.50000000  0.50000000  0.26536505
   0.50000000  0.83333333  0.26536505
   0.83333333  0.16666667  0.26536505
   0.83333333  0.50000000  0.26536505
   0.83333333  0.83333333  0.26536505
   0.00000000  0.00000000  0.32146525
  -0.00000000  0.33333333  0.32146525
  -0.00000000  0.66666667  0.32146525
   0.33333333  0.00000000  0.32146525
   0.33333333  0.33333333  0.32146525
   0.33333333  0.66666667  0.32146525
   0.66666667  0.00000000  0.32146525
   0.66666667  0.33333333  0.32146525
   0.66666667  0.66666667  0.32146525
   0.16666667  0.16666667  0.36882334
   0.16666667  0.50000000  0.36882334
   0.16666667  0.83333333  0.36882334
   0.50000000  0.16666667  0.36882334
   0.50000000  0.50000000  0.36882334
   0.50000000  0.83333333  0.36882334
   0.83333333  0.16666667  0.36882334
   0.83333333  0.50000000  0.36882334
   0.83333333  0.83333333  0.36882334
Direct configuration=     7
   0.00000000  0.00000000  0.00000000
   0.00000000  0.33333333  0.00000000
   0.00000000  0.66666667  0.00000000
   0.33333333  0.00000000  0.00000000
   0.33333333  0.33333333  0.00000000
   0.33333333  0.66666667  0.00000000
   0.66666667  0.00000000  0.00000000
   0.66666667  0.33333333  0.00000000
   0.66666667  0.66666667  0.00000000
   0.16666667  0.16666667  0.05351109
   0.16666667  0.50000000  0.05351109
   0.16666667  0.83333333  0.05351109
   0.50000000  0.16666667  0.05351109
   0.50000000  0.50000000  0.05351109
   0.50000000  0.83333333  0.05351109
   0.83333333  0.16666667  0.05351109
   0.83333333  0.50000000  0.05351109
   0.83333333  0.83333333  0.05351109
   0.00000000  0.00000000  0.10737818
   0.00000000  0.33333333  0.10737818
   0.00000000  0.66666667  0.10737818
   0.33333333  0.00000000  0.10737818
   0.33333333  0.33333333  0.10737818
   0.33333333  0.66666667  0.10737818
   0.66666667  0.00000000  0.10737818
   0.66666667  0.33333333  0.10737818
   0.66666667  0.66666667  0.10737818
   0.16666667  0.16666667  0.16042415
   0.16666667  0.50000000  0.16042415
   0.16666667  0.83333333  0.16042415
   0.50000000  0.16666667  0.16042415
   0.50000000  0.50000000  0.16042415
   0.50000000  0.83333333  0.16042415
   0.83333333  0.16666667  0.16042415
   0.83333333  0.50000000  0.16042415
   0.83333333  0.83333333  0.16042415
  -0.00000000  0.00000000  0.21467499
  -0.00000000  0.33333333  0.21467499
  -0.00000000  0.66666667  0.21467499
   0.33333333  0.00000000  0.21467499
   0.33333333  0.33333333  0.21467499
   0.33333333  0.66666667  0.21467499
   0.66666667  0.00000000  0.21467499
   0.66666667  0.33333333  0.21467499
   0.66666667  0.66666667  0.21467499
   0.16666667  0.16666667  0.26517859
   0.16666667  0.50000000  0.26517859
   0.16666667  0.83333333  0.26517859
   0.50000000  0.16666667  0.26517859
   0.50000000  0.50000000  0.26517859
   0.50000000  0.83333333  0.26517859
   0.83333333  0.16666667  0.26517859
   0.83333333  0.50000000  0.26517859
   0.83333333  0.83333333  0.26517859
   0.00000000  0.00000000  0.32102711
  -0.00000000  0.33333333  0.32102711
  -0.00000000  0.66666667  0.32102711
   0.33333333  0.00000000  0.32102711
   0.33333333  0.33333333  0.32102711
   0.33333333  0.66666667  0.32102711
   0.66666667 -0.00000000  0.32102711
   0.66666667  0.33333333  0.32102711
   0.66666667  0.66666667  0.32102711
   0.16666667  0.16666667  0.36841043
   0.16666667  0.50000000  0.36841043
   0.16666667  0.83333333  0.36841043
   0.50000000  0.16666667  0.36841043
   0.50000000  0.50000000  0.36841043
   0.50000000  0.83333333  0.36841043
   0.83333333  0.16666667  0.36841043
   0.83333333  0.50000000  0.36841043
   0.83333333  0.83333333  0.36841043
Direct configuration=     8
   0.00000000  0.00000000  0.00000000
   0.00000000  0.33333333  0.00000000
   0.00000000  0.66666667  0.00000000
   0.33333333  0.00000000  0.00000000
   0.33333333  0.33333333  0.00000000
   0.33333333  0.66666667  0.00000000
   0.66666667  0.00000000  0.00000000
   0.66666667  0.33333333  0.00000000
   0.66666667  0.66666667  0.00000000
   0.16666667  0.16666667  0.05351109
   0.16666667  0.50000000  0.05351109
   0.16666667  0.83333333  0.05351109
   0.50000000  0.16666667  0.05351109
   0.50000000  0.50000000  0.05351109
   0.50000000  0.83333333  0.05351109
   0.83333333  0.16666667  0.05351109
   0.83333333  0.50000000  0.05351109
   0.83333333  0.83333333  0.05351109
   0.00000000  0.00000000  0.10744997
   0.00000000  0.33333333  0.10744997
   0.00000000  0.66666667  0.10744997
   0.33333333  0.00000000  0.10744997
   0.33333333  0.33333333  0.10744997
   0.33333333  0.66666667  0.10744997
   0.66666667  0.00000000  0.10744997
   0.66666667  0.33333333  0.10744997
   0.66666667  0.66666667  0.10744997
   0.16666667  0.16666667  0.16010066
   0.16666667  0.50000000  0.16010066
   0.16666667  0.83333333  0.16010066
   0.50000000  0.16666667  0.16010066
   0.50000000  0.50000000  0.16010066
   0.50000000  0.83333333  0.16010066
   0.83333333  0.16666667  0.16010066
   0.83333333  0.50000000  0.16010066
   0.83333333  0.83333333  0.16010066
  -0.00000000  0.00000000  0.21408634
  -0.00000000  0.33333333  0.21408634
  -0.00000000  0.66666667  0.21408634
   0.33333333  0.00000000  0.21408634
   0.33333333  0.33333333  0.21408634
   0.33333333  0.66666667  0.21408634
   0.66666667  0.00000000  0.21408634
   0.66666667  0.33333333  0.21408634
   0.66666667  0.66666667  0.21408634
   0.16666667  0.16666667  0.26461923
   0.16666667  0.50000000  0.26461923
   0.16666667  0.83333333  0.26461923
   0.50000000  0.16666667  0.26461923
   0.50000000  0.50000000  0.26461923
   0.50000000  0.83333333  0.26461923
   0.83333333  0.16666667  0.26461923
   0.83333333  0.50000000  0.26461923
   0.83333333  0.83333333  0.26461923
   0.00000000  0.00000000  0.31971270
  -0.00000000  0.33333333  0.31971270
  -0.00000000  0.66666667  0.31971270
   0.33333333  0.00000000  0.31971270
   0.33333333  0.33333333  0.31971270
   0.33333333  0.66666667  0.31971270
   0.66666667 -0.00000000  0.31971270
   0.66666667  0.33333333  0.31971270
   0.66666667  0.66666667  0.31971270
   0.16666667  0.16666667  0.36717171
   0.16666667  0.50000000  0.36717171
   0.16666667  0.83333333  0.36717171
   0.50000000  0.16666667  0.36717171
   0.50000000  0.50000000  0.36717171
   0.50000000  0.83333333  0.36717171
   0.83333333  0.16666667  0.36717171
   0.83333333  0.50000000  0.36717171
   0.83333333  0.83333333  0.36717171
Direct configuration=     9
   0.00000000  0.00000000  0.00000000
   0.00000000  0.33333333  0.00000000
   0.00000000  0.66666667  0.00000000
   0.33333333  0.00000000  0.00000000
   0.33333333  0.33333333  0.00000000
   0.33333333  0.66666667  0.00000000
   0.66666667  0.00000000  0.00000000
   0.66666667  0.33333333  0.00000000
   0.66666667  0.66666667  0.00000000
   0.16666667  0.16666667  0.05351109
   0.16666667  0.50000000  0.05351109
   0.16666667  0.83333333  0.05351109
   0.50000000  0.16666667  0.05351109
   0.50000000  0.50000000  0.05351109
   0.50000000  0.83333333  0.05351109
   0.83333333  0.16666667  0.05351109
   0.83333333  0.50000000  0.05351109
   0.83333333  0.83333333  0.05351109
   0.00000000  0.00000000  0.10759357
   0.00000000  0.33333333  0.10759357
   0.00000000  0.66666667  0.10759357
   0.33333333  0.00000000  0.10759357
   0.33333333  0.33333333  0.10759357
   0.33333333  0.66666667  0.10759357
   0.66666667  0.00000000  0.10759357
   0.66666667  0.33333333  0.10759357
   0.66666667  0.66666667  0.10759357
   0.16666667  0.16666667  0.15945368
   0.16666667  0.50000000  0.15945368
   0.16666667  0.83333333  0.15945368
   0.50000000  0.16666667  0.15945368
   0.50000000  0.50000000  0.15945368
   0.50000000  0.83333333  0.15945368
   0.83333333  0.16666667  0.15945368
   0.83333333  0.50000000  0.15945368
   0.83333333  0.83333333  0.15945368
  -0.00000000  0.00000000  0.21290903
  -0.00000000  0.33333333  0.21290903
  -0.00000000  0.66666667  0.21290903
   0.33333333  0.00000000  0.21290903
   0.33333333  0.33333333  0.21290903
   0.33333333  0.66666667  0.21290903
   0.66666667  0.00000000  0.21290903
   0.66666667  0.33333333  0.21290903
   0.66666667  0.66666667  0.21290903
   0.16666667  0.16666667  0.26350049
   0.16666667  0.50000000  0.26350049
   0.16666667  0.83333333  0.26350049
   0.50000000  0.16666667  0.26350049
   0.50000000  0.50000000  0.26350049
   0.50000000  0.83333333  0.26350049
   0.83333333  0.16666667  0.26350049
   0.83333333  0.50000000  0.26350049
   0.83333333  0.83333333  0.26350049
   0.00000000  0.00000000  0.31708388
  -0.00000000  0.33333333  0.31708388
   0.00000000  0.66666667  0.31708388
   0.33333333  0.00000000  0.31708388
   0.33333333  0.33333333  0.31708388
   0.33333333  0.66666667  0.31708388
   0.66666667 -0.00000000  0.31708388
   0.66666667  0.33333333  0.31708388
   0.66666667  0.66666667  0.31708388
   0.16666667  0.16666667  0.36469427
   0.16666667  0.50000000  0.36469427
   0.16666667  0.83333333  0.36469427
   0.50000000  0.16666667  0.36469427
   0.50000000  0.50000000  0.36469427
   0.50000000  0.83333333  0.36469427
   0.83333333  0.16666667  0.36469427
   0.83333333  0.50000000  0.36469427
   0.83333333  0.83333333  0.36469427
Direct configuration=    10
   0.00000000  0.00000000  0.00000000
   0.00000000  0.33333333  0.00000000
   0.00000000  0.66666667  0.00000000
   0.33333333  0.00000000  0.00000000
   0.33333333  0.33333333  0.00000000
   0.33333333  0.66666667  0.00000000
   0.66666667  0.00000000  0.00000000
   0.66666667  0.33333333  0.00000000
   0.66666667  0.66666667  0.00000000
   0.16666667  0.16666667  0.05351109
   0.16666667  0.50000000  0.05351109
   0.16666667  0.83333333  0.05351109
   0.50000000  0.16666667  0.05351109
   0.50000000  0.50000000  0.05351109
   0.50000000  0.83333333  0.05351109
   0.83333333  0.16666667  0.05351109
   0.83333333  0.50000000  0.05351109
   0.83333333  0.83333333  0.05351109
   0.00000000  0.00000000  0.10751123
   0.00000000  0.33333333  0.10751123
   0.00000000  0.66666667  0.10751123
   0.33333333  0.00000000  0.10751123
   0.33333333  0.33333333  0.10751123
   0.33333333  0.66666667  0.10751123
   0.66666667  0.00000000  0.10751123
   0.66666667  0.33333333  0.10751123
   0.66666667  0.66666667  0.10751123
   0.16666667  0.16666667  0.15982465
   0.16666667  0.50000000  0.15982465
   0.16666667  0.83333333  0.15982465
   0.50000000  0.16666667  0.15982465
   0.50000000  0.50000000  0.15982465
   0.50000000  0.83333333  0.15982465
   0.83333333  0.16666667  0.15982465
   0.83333333  0.50000000  0.15982465
   0.83333333  0.83333333  0.15982465
  -0.00000000  0.00000000  0.21358408
  -0.00000000  0.33333333  0.21358408
  -0.00000000  0.66666667  0.21358408
   0.33333333  0.00000000  0.21358408
   0.33333333  0.33333333  0.21358408
   0.33333333  0.66666667  0.21358408
   0.66666667  0.00000000  0.21358408
   0.66666667  0.33333333  0.21358408
   0.66666667  0.66666667  0.21358408
   0.16666667  0.16666667  0.26414195
   0.16666667  0.50000000  0.26414195
   0.16666667  0.83333333  0.26414195
   0.50000000  0.16666667  0.26414195
   0.50000000  0.50000000  0.26414195
   0.50000000  0.83333333  0.26414195
   0.83333333  0.16666667  0.26414195
   0.83333333  0.50000000  0.26414195
   0.83333333  0.83333333  0.26414195
   0.00000000  0.00000000  0.31859120
  -0.00000000  0.33333333  0.31859120
   0.00000000  0.66666667  0.31859120
   0.33333333  0.00000000  0.31859120
   0.33333333  0.33333333  0.31859120
   0.33333333  0.66666667  0.31859120
   0.66666667 -0.00000000  0.31859120
   0.66666667  0.33333333  0.31859120
   0.66666667  0.66666667  0.31859120
   0.16666667  0.16666667  0.36611479
   0.16666667  0.50000000  0.36611479
   0.16666667  0.83333333  0.36611479
   0.50000000  0.16666667  0.36611479
   0.50000000  0.50000000  0.36611479
   0.50000000  0.83333333  0.36611479
   0.83333333  0.16666667  0.36611479
   0.83333333  0.50000000  0.36611479
   0.83333333  0.83333333  0.36611479
Direct configuration=    11
   0.00000000  0.00000000  0.00000000
   0.00000000  0.33333333  0.00000000
   0.00000000  0.66666667  0.00000000
   0.33333333  0.00000000  0.00000000
   0.33333333  0.33333333  0.00000000
   0.33333333  0.66666667  0.00000000
   0.66666667  0.00000000  0.00000000
   0.66666667  0.33333333  0.00000000
   0.66666667  0.66666667  0.00000000
   0.16666667  0.16666667  0.05351109
   0.16666667  0.50000000  0.05351109
   0.16666667  0.83333333  0.05351109
   0.50000000  0.16666667  0.05351109
   0.50000000  0.50000000  0.05351109
   0.50000000  0.83333333  0.05351109
   0.83333333  0.16666667  0.05351109
   0.83333333  0.50000000  0.05351109
   0.83333333  0.83333333  0.05351109
   0.00000000  0.00000000  0.10730673
   0.00000000  0.33333333  0.10730673
   0.00000000  0.66666667  0.10730673
   0.33333333  0.00000000  0.10730673
   0.33333333  0.33333333  0.10730673
   0.33333333  0.66666667  0.10730673
   0.66666667  0.00000000  0.10730673
   0.66666667  0.33333333  0.10730673
   0.66666667  0.66666667  0.10730673
   0.16666667  0.16666667  0.15945819
   0.16666667  0.50000000  0.15945819
   0.16666667  0.83333333  0.15945819
   0.50000000  0.16666667  0.15945819
   0.50000000  0.50000000  0.15945819
   0.50000000  0.83333333  0.15945819
   0.83333333  0.16666667  0.15945819
   0.83333333  0.50000000  0.15945819
   0.83333333  0.83333333  0.15945819
  -0.00000000  0.00000000  0.21259320
  -0.00000000  0.33333333  0.21259320
  -0.00000000  0.66666667  0.21259320
   0.33333333  0.00000000  0.21259320
   0.33333333  0.33333333  0.21259320
   0.33333333  0.66666667  0.21259320
   0.66666667  0.00000000  0.21259320
   0.66666667  0.33333333  0.21259320
   0.66666667  0.66666667  0.21259320
   0.16666667  0.16666667  0.26370899
   0.16666667  0.50000000  0.26370899
   0.16666667  0.83333333  0.26370899
   0.50000000  0.16666667  0.26370899
   0.50000000  0.50000000  0.26370899
   0.50000000  0.83333333  0.26370899
   0.83333333  0.16666667  0.26370899
   0.83333333  0.50000000  0.26370899
   0.83333333  0.83333333  0.26370899
   0.00000000  0.00000000  0.31833727
  -0.00000000  0.33333333  0.31833727