 145 145   0   0
  0.2265927E+02  0.1089000E-08  0.1089000E-08  0.2770500E-08  0.5000000E-15
  1.000000000000000E-004
  CAR 
 unknown system                          
     13.05373362    -17.76005372  301      1.67225001      1.00000000
    -17.760  0.0000E+00  0.0000E+00  0.0000E+00  0.0000E+00
    -17.657  0.0000E+00  0.0000E+00  0.0000E+00  0.0000E+00
    -17.555  0.0000E+00  0.0000E+00  0.0000E+00  0.0000E+00
    -17.452 -0.2423E-32 -0.2423E-32 -0.2489E-33 -0.2489E-33
    -17.349 -0.1038E-28 -0.1038E-28 -0.1066E-29 -0.1066E-29
    -17.246 -0.2611E-25 -0.2611E-25 -0.2683E-26 -0.2683E-26
    -17.144 -0.3859E-22 -0.3859E-22 -0.3966E-23 -0.3966E-23
    -17.041 -0.3345E-19 -0.3345E-19 -0.3440E-20 -0.3440E-20
    -16.938 -0.1632E-16 -0.1632E-16 -0.1680E-17 -0.1680E-17
    -16.836 -0.4884E-14 -0.4884E-14 -0.5033E-15 -0.5033E-15
    -16.733 -0.8418E-12 -0.8418E-12 -0.8696E-13 -0.8696E-13
    -16.630 -0.8427E-10 -0.8427E-10 -0.8743E-11 -0.8742E-11
    -16.528 -0.4871E-08 -0.4871E-08 -0.5091E-09 -0.5091E-09
    -16.425 -0.1610E-06 -0.1610E-06 -0.1705E-07 -0.1705E-07
    -16.322 -0.2991E-05 -0.2991E-05 -0.3243E-06 -0.3243E-06
    -16.219 -0.3014E-04 -0.3014E-04 -0.3420E-05 -0.3420E-05
    -16.117 -0.1504E-03 -0.1504E-03 -0.1886E-04 -0.1886E-04
    -16.014 -0.2443E-03 -0.2443E-03 -0.4396E-04 -0.4396E-04
    -15.911  0.6969E-03  0.6969E-03  0.2762E-04  0.2762E-04
    -15.809  0.3399E-02  0.3399E-02  0.3768E-03  0.3768E-03
    -15.706  0.5099E-02  0.5099E-02  0.9005E-03  0.9005E-03
    -15.603  0.3233E-02  0.3233E-02  0.1233E-02  0.1233E-02
    -15.500  0.5922E-03  0.5922E-03  0.1293E-02  0.1293E-02
    -15.398 -0.2522E-03 -0.2522E-03  0.1267E-02  0.1267E-02
    -15.295 -0.1405E-03 -0.1405E-03  0.1253E-02  0.1253E-02
    -15.192 -0.2694E-04 -0.2694E-04  0.1250E-02  0.1250E-02
    -15.090 -0.2579E-05 -0.2579E-05  0.1250E-02  0.1250E-02
    -14.987 -0.1343E-06 -0.1343E-06  0.1250E-02  0.1250E-02
    -14.884 -0.3937E-08 -0.3937E-08  0.1250E-02  0.1250E-02
    -14.781 -0.6603E-10 -0.6603E-10  0.1250E-02  0.1250E-02
    -14.679 -0.6397E-12 -0.6397E-12  0.1250E-02  0.1250E-02
    -14.576 -0.3599E-14 -0.3599E-14  0.1250E-02  0.1250E-02
    -14.473 -0.1351E-16 -0.1351E-16  0.1250E-02  0.1250E-02
    -14.371  0.0000E+00  0.0000E+00  0.1250E-02  0.1250E-02
    -14.268  0.0000E+00  0.0000E+00  0.1250E-02  0.1250E-02
    -14.165  0.0000E+00  0.0000E+00  0.1250E-02  0.1250E-02
    -14.062  0.0000E+00  0.0000E+00  0.1250E-02  0.1250E-02
    -13.960  0.0000E+00  0.0000E+00  0.1250E-02  0.1250E-02
    -13.857  0.0000E+00  0.0000E+00  0.1250E-02  0.1250E-02
    -13.754  0.0000E+00  0.0000E+00  0.1250E-02  0.1250E-02
    -13.652  0.0000E+00  0.0000E+00  0.1250E-02  0.1250E-02
    -13.549  0.0000E+00  0.0000E+00  0.1250E-02  0.1250E-02
    -13.446  0.0000E+00  0.0000E+00  0.1250E-02  0.1250E-02
    -13.343  0.0000E+00  0.0000E+00  0.1250E-02  0.1250E-02
    -13.241  0.0000E+00  0.0000E+00  0.1250E-02  0.1250E-02
    -13.138  0.0000E+00  0.0000E+00  0.1250E-02  0.1250E-02
    -13.035  0.0000E+00  0.0000E+00  0.1250E-02  0.1250E-02
    -12.933  0.0000E+00  0.0000E+00  0.1250E-02  0.1250E-02
    -12.830  0.0000E+00  0.0000E+00  0.1250E-02  0.1250E-02
    -12.727  0.0000E+00  0.0000E+00  0.1250E-02  0.1250E-02
    -12.624  0.0000E+00  0.0000E+00  0.1250E-02  0.1250E-02
    -12.522  0.0000E+00  0.0000E+00  0.1250E-02  0.1250E-02
    -12.419  0.0000E+00  0.0000E+00  0.1250E-02  0.1250E-02
    -12.316  0.0000E+00  0.0000E+00  0.1250E-02  0.1250E-02
    -12.214  0.0000E+00  0.0000E+00  0.1250E-02  0.1250E-02
    -12.111  0.0000E+00  0.0000E+00  0.1250E-02  0.1250E-02
    -12.008  0.0000E+00  0.0000E+00  0.1250E-02  0.1250E-02
    -11.905  0.0000E+00  0.0000E+00  0.1250E-02  0.1250E-02
    -11.803  0.0000E+00  0.0000E+00  0.1250E-02  0.1250E-02
    -11.700  0.0000E+00  0.0000E+00  0.1250E-02  0.1250E-02
    -11.597  0.0000E+00  0.0000E+00  0.1250E-02  0.1250E-02
    -11.495  0.0000E+00  0.0000E+00  0.1250E-02  0.1250E-02
    -11.392  0.0000E+00  0.0000E+00  0.1250E-02  0.1250E-02
    -11.289  0.0000E+00  0.0000E+00  0.1250E-02  0.1250E-02
    -11.186  0.0000E+00  0.0000E+00  0.1250E-02  0.1250E-02
    -11.084  0.0000E+00  0.0000E+00  0.1250E-02  0.1250E-02
    -10.981  0.0000E+00  0.0000E+00  0.1250E-02  0.1250E-02
    -10.878  0.0000E+00  0.0000E+00  0.1250E-02  0.1250E-02
    -10.776  0.0000E+00  0.0000E+00  0.1250E-02  0.1250E-02
    -10.673  0.0000E+00  0.0000E+00  0.1250E-02  0.1250E-02
    -10.570  0.0000E+00  0.0000E+00  0.1250E-02  0.1250E-02
    -10.467  0.0000E+00  0.0000E+00  0.1250E-02  0.1250E-02
    -10.365  0.0000E+00  0.0000E+00  0.1250E-02  0.1250E-02
    -10.262  0.0000E+00  0.0000E+00  0.1250E-02  0.1250E-02
    -10.159  0.0000E+00  0.0000E+00  0.1250E-02  0.1250E-02
    -10.057  0.0000E+00  0.0000E+00  0.1250E-02  0.1250E-02
     -9.954  0.0000E+00  0.0000E+00  0.1250E-02  0.1250E-02
     -9.851  0.0000E+00  0.0000E+00  0.1250E-02  0.1250E-02
     -9.748  0.0000E+00  0.0000E+00  0.1250E-02  0.1250E-02
     -9.646  0.0000E+00  0.0000E+00  0.1250E-02  0.1250E-02
     -9.543  0.0000E+00  0.0000E+00  0.1250E-02  0.1250E-02
     -9.440  0.0000E+00  0.0000E+00  0.1250E-02  0.1250E-02
     -9.338  0.0000E+00  0.0000E+00  0.1250E-02  0.1250E-02
     -9.235 -0.8909E-33 -0.8908E-33  0.1250E-02  0.1250E-02
     -9.132 -0.3543E-29 -0.3543E-29  0.1250E-02  0.1250E-02
     -9.029 -0.8279E-26 -0.8279E-26  0.1250E-02  0.1250E-02
     -8.927 -0.1136E-22 -0.1136E-22  0.1250E-02  0.1250E-02
     -8.824 -0.9144E-20 -0.9144E-20  0.1250E-02  0.1250E-02
     -8.721 -0.4164E-17 -0.4164E-17  0.1250E-02  0.1250E-02
     -8.619 -0.1150E-14 -0.1150E-14  0.1250E-02  0.1250E-02
     -8.516 -0.1840E-12 -0.1840E-12  0.1250E-02  0.1250E-02
     -8.413 -0.1712E-10 -0.1712E-10  0.1250E-02  0.1250E-02
     -8.310 -0.9214E-09 -0.9214E-09  0.1250E-02  0.1250E-02
     -8.208 -0.2852E-07 -0.2852E-07  0.1250E-02  0.1250E-02
     -8.105 -0.5031E-06 -0.5031E-06  0.1250E-02  0.1250E-02
     -8.002 -0.4983E-05 -0.4983E-05  0.1249E-02  0.1249E-02
     -7.900 -0.2689E-04 -0.2689E-04  0.1247E-02  0.1247E-02
     -7.797 -0.7112E-04 -0.7112E-04  0.1239E-02  0.1239E-02
     -7.694 -0.2740E-04 -0.2740E-04  0.1237E-02  0.1237E-02
     -7.592  0.4298E-03  0.4298E-03  0.1281E-02  0.1281E-02
     -7.489  0.1599E-02  0.1599E-02  0.1445E-02  0.1445E-02
     -7.386  0.3053E-02  0.3053E-02  0.1758E-02  0.1758E-02
     -7.283  0.3529E-02  0.3529E-02  0.2121E-02  0.2121E-02
     -7.181  0.2453E-02  0.2453E-02  0.2373E-02  0.2373E-02
     -7.078  0.1577E-02  0.1577E-02  0.2535E-02  0.2535E-02
     -6.975  0.3395E-02  0.3395E-02  0.2884E-02  0.2884E-02
     -6.873  0.7114E-02  0.7114E-02  0.3614E-02  0.3614E-02
     -6.770  0.8633E-02  0.8633E-02  0.4501E-02  0.4501E-02
     -6.667  0.5980E-02  0.5980E-02  0.5115E-02  0.5115E-02
     -6.564  0.2618E-02  0.2618E-02  0.5384E-02  0.5384E-02
     -6.462  0.2869E-02  0.2869E-02  0.5679E-02  0.5679E-02
     -6.359  0.6695E-02  0.6695E-02  0.6367E-02  0.6367E-02
     -6.256  0.1041E-01  0.1041E-01  0.7436E-02  0.7436E-02
     -6.154  0.1094E-01  0.1094E-01  0.8559E-02  0.8559E-02
     -6.051  0.8420E-02  0.8420E-02  0.9424E-02  0.9424E-02
     -5.948  0.6190E-02  0.6190E-02  0.1006E-01  0.1006E-01
     -5.845  0.7021E-02  0.7021E-02  0.1078E-01  0.1078E-01
     -5.743  0.9928E-02  0.9928E-02  0.1180E-01  0.1180E-01
     -5.640  0.1220E-01  0.1220E-01  0.1305E-01  0.1305E-01
     -5.537  0.1197E-01  0.1197E-01  0.1428E-01  0.1428E-01
     -5.435  0.9379E-02  0.9379E-02  0.1525E-01  0.1525E-01
     -5.332  0.8282E-02  0.8282E-02  0.1610E-01  0.1610E-01
     -5.229  0.1097E-01  0.1097E-01  0.1722E-01  0.1722E-01
     -5.126  0.1266E-01  0.1266E-01  0.1852E-01  0.1852E-01
     -5.024  0.1186E-01  0.1186E-01  0.1974E-01  0.1974E-01
     -4.921  0.1410E-01  0.1410E-01  0.2119E-01  0.2119E-01
     -4.818  0.1754E-01  0.1754E-01  0.2299E-01  0.2299E-01
     -4.716  0.1640E-01  0.1640E-01  0.2468E-01  0.2468E-01
     -4.613  0.1420E-01  0.1420E-01  0.2614E-01  0.2614E-01
     -4.510  0.1468E-01  0.1468E-01  0.2764E-01  0.2764E-01
     -4.407  0.1556E-01  0.1556E-01  0.2924E-01  0.2924E-01
     -4.305  0.1563E-01  0.1563E-01  0.3085E-01  0.3085E-01
     -4.202  0.1602E-01  0.1602E-01  0.3249E-01  0.3249E-01
     -4.099  0.1877E-01  0.1877E-01  0.3442E-01  0.3442E-01
     -3.997  0.2456E-01  0.2456E-01  0.3694E-01  0.3694E-01
     -3.894  0.2857E-01  0.2857E-01  0.3988E-01  0.3988E-01
     -3.791  0.2640E-01  0.2640E-01  0.4259E-01  0.4259E-01
     -3.688  0.2317E-01  0.2317E-01  0.4497E-01  0.4497E-01
     -3.586  0.2643E-01  0.2643E-01  0.4768E-01  0.4768E-01
     -3.483  0.3531E-01  0.3531E-01  0.5131E-01  0.5131E-01
     -3.380  0.4705E-01  0.4705E-01  0.5614E-01  0.5614E-01
     -3.278  0.5943E-01  0.5943E-01  0.6224E-01  0.6224E-01
     -3.175  0.6993E-01  0.6993E-01  0.6943E-01  0.6943E-01
     -3.072  0.7959E-01  0.7959E-01  0.7760E-01  0.7760E-01
     -2.969  0.8708E-01  0.8708E-01  0.8655E-01  0.8655E-01
     -2.867  0.9410E-01  0.9410E-01  0.9621E-01  0.9621E-01
     -2.764  0.1082E+00  0.1082E+00  0.1073E+00  0.1073E+00
     -2.661  0.1278E+00  0.1278E+00  0.1205E+00  0.1205E+00
     -2.559  0.1483E+00  0.1483E+00  0.1357E+00  0.1357E+00
     -2.456  0.1762E+00  0.1762E+00  0.1538E+00  0.1538E+00
     -2.353  0.2031E+00  0.2031E+00  0.1746E+00  0.1746E+00
     -2.250  0.2073E+00  0.2073E+00  0.1959E+00  0.1959E+00
     -2.148  0.1856E+00  0.1856E+00  0.2150E+00  0.2150E+00
     -2.045  0.1646E+00  0.1646E+00  0.2319E+00  0.2319E+00
     -1.942  0.1690E+00  0.1690E+00  0.2493E+00  0.2493E+00
     -1.840  0.1920E+00  0.1920E+00  0.2690E+00  0.2690E+00
     -1.737  0.2146E+00  0.2146E+00  0.2910E+00  0.2910E+00
     -1.634  0.2278E+00  0.2278E+00  0.3144E+00  0.3144E+00
     -1.531  0.2459E+00  0.2459E+00  0.3397E+00  0.3397E+00
     -1.429  0.2783E+00  0.2783E+00  0.3683E+00  0.3683E+00
     -1.326  0.3071E+00  0.3071E+00  0.3998E+00  0.3998E+00
     -1.223  0.3212E+00  0.3212E+00  0.4328E+00  0.4328E+00
     -1.121  0.3198E+00  0.3198E+00  0.4657E+00  0.4657E+00
     -1.018  0.2997E+00  0.2997E+00  0.4964E+00  0.4964E+00
     -0.915  0.2741E+00  0.2741E+00  0.5246E+00  0.5246E+00
     -0.812  0.2683E+00  0.2683E+00  0.5521E+00  0.5521E+00
     -0.710  0.2930E+00  0.2930E+00  0.5822E+00  0.5822E+00
     -0.607  0.3277E+00  0.3277E+00  0.6159E+00  0.6159E+00
     -0.504  0.3396E+00  0.3396E+00  0.6508E+00  0.6508E+00
     -0.402  0.3292E+00  0.3292E+00  0.6846E+00  0.6846E+00
     -0.299  0.3227E+00  0.3227E+00  0.7177E+00  0.7177E+00
     -0.196  0.3353E+00  0.3353E+00  0.7522E+00  0.7522E+00
     -0.093  0.3764E+00  0.3764E+00  0.7908E+00  0.7908E+00
      0.009  0.4336E+00  0.4336E+00  0.8354E+00  0.8354E+00
      0.112  0.4471E+00  0.4471E+00  0.8813E+00  0.8813E+00
      0.215  0.3652E+00  0.3652E+00  0.9188E+00  0.9188E+00
      0.317  0.2174E+00  0.2174E+00  0.9411E+00  0.9411E+00
      0.420  0.9101E-01  0.9101E-01  0.9505E+00  0.9505E+00
      0.523  0.3773E-01  0.3773E-01  0.9544E+00  0.9544E+00
      0.626  0.3471E-01  0.3471E-01  0.9579E+00  0.9579E+00
      0.728  0.4205E-01  0.4205E-01  0.9622E+00  0.9622E+00
      0.831  0.4158E-01  0.4158E-01  0.9665E+00  0.9665E+00
      0.934  0.3405E-01  0.3405E-01  0.9700E+00  0.9700E+00
      1.036  0.2644E-01  0.2644E-01  0.9727E+00  0.9727E+00
      1.139  0.2127E-01  0.2127E-01  0.9749E+00  0.9749E+00
      1.242  0.2368E-01  0.2368E-01  0.9773E+00  0.9773E+00
      1.344  0.3687E-01  0.3687E-01  0.9811E+00  0.9811E+00
      1.447  0.4677E-01  0.4677E-01  0.9859E+00  0.9859E+00
      1.550  0.4160E-01  0.4160E-01  0.9902E+00  0.9902E+00
      1.653  0.2993E-01  0.2993E-01  0.9933E+00  0.9933E+00
      1.755  0.2149E-01  0.2149E-01  0.9955E+00  0.9955E+00
      1.858  0.1845E-01  0.1845E-01  0.9974E+00  0.9974E+00
      1.961  0.1854E-01  0.1854E-01  0.9993E+00  0.9993E+00
      2.063  0.1932E-01  0.1932E-01  0.1001E+01  0.1001E+01
      2.166  0.2400E-01  0.2400E-01  0.1004E+01  0.1004E+01
      2.269  0.3111E-01  0.3111E-01  0.1007E+01  0.1007E+01
      2.372  0.3365E-01  0.3365E-01  0.1010E+01  0.1010E+01
      2.474  0.3180E-01  0.3180E-01  0.1014E+01  0.1014E+01
      2.577  0.3066E-01  0.3066E-01  0.1017E+01  0.1017E+01
      2.680  0.3216E-01  0.3216E-01  0.1020E+01  0.1020E+01
      2.782  0.3233E-01  0.3233E-01  0.1023E+01  0.1023E+01
      2.885  0.2834E-01  0.2834E-01  0.1026E+01  0.1026E+01
      2.988  0.2405E-01  0.2405E-01  0.1029E+01  0.1029E+01
      3.091  0.1933E-01  0.1933E-01  0.1031E+01  0.1031E+01
      3.193  0.1195E-01  0.1195E-01  0.1032E+01  0.1032E+01
      3.296  0.8369E-02  0.8369E-02  0.1033E+01  0.1033E+01
      3.399  0.1650E-01  0.1650E-01  0.1035E+01  0.1035E+01
      3.501  0.3189E-01  0.3189E-01  0.1038E+01  0.1038E+01
      3.604  0.4149E-01  0.4149E-01  0.1042E+01  0.1042E+01
      3.707  0.3871E-01  0.3871E-01  0.1046E+01  0.1046E+01
      3.810  0.2812E-01  0.2812E-01  0.1049E+01  0.1049E+01
      3.912  0.2068E-01  0.2068E-01  0.1051E+01  0.1051E+01
      4.015  0.2131E-01  0.2131E-01  0.1053E+01  0.1053E+01
      4.118  0.2343E-01  0.2343E-01  0.1056E+01  0.1056E+01
      4.220  0.2170E-01  0.2170E-01  0.1058E+01  0.1058E+01
      4.323  0.1821E-01  0.1821E-01  0.1060E+01  0.1060E+01
      4.426  0.1630E-01  0.1630E-01  0.1061E+01  0.1061E+01
      4.529  0.1647E-01  0.1647E-01  0.1063E+01  0.1063E+01
      4.631  0.1883E-01  0.1883E-01  0.1065E+01  0.1065E+01
      4.734  0.2107E-01  0.2107E-01  0.1067E+01  0.1067E+01
      4.837  0.1901E-01  0.1901E-01  0.1069E+01  0.1069E+01
      4.939  0.1694E-01  0.1694E-01  0.1071E+01  0.1071E+01
      5.042  0.1971E-01  0.1971E-01  0.1073E+01  0.1073E+01
      5.145  0.2494E-01  0.2494E-01  0.1076E+01  0.1076E+01
      5.248  0.3181E-01  0.3181E-01  0.1079E+01  0.1079E+01
      5.350  0.3578E-01  0.3578E-01  0.1082E+01  0.1082E+01
      5.453  0.3038E-01  0.3038E-01  0.1086E+01  0.1086E+01
      5.556  0.2145E-01  0.2145E-01  0.1088E+01  0.1088E+01
      5.658  0.2061E-01  0.2061E-01  0.1090E+01  0.1090E+01
      5.761  0.2813E-01  0.2813E-01  0.1093E+01  0.1093E+01
      5.864  0.3152E-01  0.3152E-01  0.1096E+01  0.1096E+01
      5.967  0.2585E-01  0.2585E-01  0.1099E+01  0.1099E+01
      6.069  0.2083E-01  0.2083E-01  0.1101E+01  0.1101E+01
      6.172  0.2035E-01  0.2034E-01  0.1103E+01  0.1103E+01
      6.275  0.2084E-01  0.2084E-01  0.1105E+01  0.1105E+01
      6.377  0.2284E-01  0.2284E-01  0.1107E+01  0.1107E+01
      6.480  0.2762E-01  0.2762E-01  0.1110E+01  0.1110E+01
      6.583  0.3430E-01  0.3430E-01  0.1114E+01  0.1114E+01
      6.686  0.4159E-01  0.4158E-01  0.1118E+01  0.1118E+01
      6.788  0.4604E-01  0.4602E-01  0.1123E+01  0.1123E+01
      6.891  0.4347E-01  0.4348E-01  0.1127E+01  0.1127E+01
      6.994  0.3478E-01  0.3480E-01  0.1131E+01  0.1131E+01
      7.096  0.2690E-01  0.2691E-01  0.1134E+01  0.1134E+01
      7.199  0.2458E-01  0.2457E-01  0.1136E+01  0.1136E+01
      7.302  0.2652E-01  0.2650E-01  0.1139E+01  0.1139E+01
      7.405  0.3177E-01  0.3176E-01  0.1142E+01  0.1142E+01
      7.507  0.3772E-01  0.3771E-01  0.1146E+01  0.1146E+01
      7.610  0.3752E-01  0.3752E-01  0.1150E+01  0.1150E+01
      7.713  0.3234E-01  0.3236E-01  0.1153E+01  0.1153E+01
      7.815  0.3044E-01  0.3045E-01  0.1156E+01  0.1156E+01
      7.918  0.3136E-01  0.3135E-01  0.1159E+01  0.1159E+01
      8.021  0.3135E-01  0.3133E-01  0.1163E+01  0.1163E+01
      8.124  0.3409E-01  0.3409E-01  0.1166E+01  0.1166E+01
      8.226  0.3937E-01  0.3939E-01  0.1170E+01  0.1170E+01
      8.329  0.3708E-01  0.3709E-01  0.1174E+01  0.1174E+01
      8.432  0.2717E-01  0.2716E-01  0.1177E+01  0.1177E+01
      8.534  0.2336E-01  0.2334E-01  0.1179E+01  0.1179E+01
      8.637  0.3170E-01  0.3169E-01  0.1183E+01  0.1182E+01
      8.740  0.4312E-01  0.4313E-01  0.1187E+01  0.1187E+01
      8.843  0.4842E-01  0.4842E-01  0.1192E+01  0.1192E+01
      8.945  0.4791E-01  0.4790E-01  0.1197E+01  0.1197E+01
      9.048  0.4209E-01  0.4210E-01  0.1201E+01  0.1201E+01
      9.151  0.3414E-01  0.3415E-01  0.1205E+01  0.1205E+01
      9.253  0.3281E-01  0.3281E-01  0.1208E+01  0.1208E+01
      9.356  0.3814E-01  0.3814E-01  0.1212E+01  0.1212E+01
      9.459  0.3869E-01  0.3870E-01  0.1216E+01  0.1216E+01
      9.562  0.3111E-01  0.3110E-01  0.1219E+01  0.1219E+01
      9.664  0.2816E-01  0.2813E-01  0.1222E+01  0.1222E+01
      9.767  0.3807E-01  0.3803E-01  0.1226E+01  0.1226E+01
      9.870  0.5111E-01  0.5111E-01  0.1231E+01  0.1231E+01
      9.972  0.5240E-01  0.5244E-01  0.1237E+01  0.1237E+01
     10.075  0.4213E-01  0.4215E-01  0.1241E+01  0.1241E+01
     10.178  0.3631E-01  0.3629E-01  0.1245E+01  0.1245E+01
     10.280  0.4593E-01  0.4591E-01  0.1249E+01  0.1249E+01
     10.383  0.5746E-01  0.5746E-01  0.1255E+01  0.1255E+01
     10.486  0.5262E-01  0.5264E-01  0.1261E+01  0.1261E+01
     10.589  0.4195E-01  0.4195E-01  0.1265E+01  0.1265E+01
     10.691  0.4272E-01  0.4271E-01  0.1269E+01  0.1269E+01
     10.794  0.4920E-01  0.4919E-01  0.1274E+01  0.1274E+01
     10.897  0.4838E-01  0.4833E-01  0.1279E+01  0.1279E+01
     10.999  0.3632E-01  0.3628E-01  0.1283E+01  0.1283E+01
     11.102  0.1768E-01  0.1772E-01  0.1285E+01  0.1285E+01
     11.205  0.3429E-02  0.3497E-02  0.1285E+01  0.1285E+01
     11.308 -0.1217E-02 -0.1190E-02  0.1285E+01  0.1285E+01
     11.410 -0.9064E-03 -0.9079E-03  0.1285E+01  0.1285E+01
     11.513 -0.2319E-03 -0.2353E-03  0.1285E+01  0.1285E+01
     11.616 -0.3086E-04 -0.3167E-04  0.1285E+01  0.1285E+01
     11.718 -0.2311E-05 -0.2400E-05  0.1285E+01  0.1285E+01
     11.821 -0.1001E-06 -0.1052E-06  0.1285E+01  0.1285E+01
     11.924 -0.2531E-08 -0.2692E-08  0.1285E+01  0.1285E+01
     12.027 -0.3760E-10 -0.4046E-10  0.1285E+01  0.1285E+01
     12.129 -0.3286E-12 -0.3580E-12  0.1285E+01  0.1285E+01
     12.232 -0.1692E-14 -0.1866E-14  0.1285E+01  0.1285E+01
     12.335 -0.6005E-17 -0.6305E-17  0.1285E+01  0.1285E+01
     12.437  0.0000E+00  0.0000E+00  0.1285E+01  0.1285E+01
     12.540  0.0000E+00  0.0000E+00  0.1285E+01  0.1285E+01
     12.643  0.0000E+00  0.0000E+00  0.1285E+01  0.1285E+01
     12.746  0.0000E+00  0.0000E+00  0.1285E+01  0.1285E+01
     12.848  0.0000E+00  0.0000E+00  0.1285E+01  0.1285E+01
     12.951  0.0000E+00  0.0000E+00  0.1285E+01  0.1285E+01
     13.054  0.0000E+00  0.0000E+00  0.1285E+01  0.1285E+01
