  145  145  800    2
  0.2265927E+02  0.1089000E-08  0.1089000E-08  0.2770500E-08  0.5000000E-15
  1.000000000000000E-004
  CAR 
 unknown system                          
   1590      4   1028
 
  0.0000000E+00  0.0000000E+00  0.0000000E+00  0.1111111E+00
      1        -15.760054      -15.760053   1.000000   1.000000
      2         -7.557335       -7.557334   1.000000   1.000000
      3         -6.964313       -6.964313   1.000000   1.000000
      4         -6.270893       -6.270893   1.000000   1.000000
      5         -6.270161       -6.270161   1.000000   1.000000
      6         -6.268303       -6.268303   1.000000   1.000000
      7         -6.264251       -6.264251   1.000000   1.000000
      8         -6.150052       -6.150051   1.000000   1.000000
      9         -5.719840       -5.719840   1.000000   1.000000
     10         -5.715901       -5.715901   1.000000   1.000000
     11         -5.714459       -5.714459   1.000000   1.000000
     12         -5.699179       -5.699179   1.000000   1.000000
     13         -5.113272       -5.113272   1.000000   1.000000
     14         -5.112731       -5.112731   1.000000   1.000000
     15         -5.111828       -5.111828   1.000000   1.000000
     16         -5.111115       -5.111114   1.000000   1.000000
     17         -5.100310       -5.100310   1.000000   1.000000
     18         -4.980243       -4.980243   1.000000   1.000000
     19         -4.971191       -4.971191   1.000000   1.000000
     20         -4.970141       -4.970141   1.000000   1.000000
     21         -4.944004       -4.944004   1.000000   1.000000
     22         -4.669498       -4.669498   1.000000   1.000000
     23         -4.664620       -4.664620   1.000000   1.000000
     24         -4.658879       -4.658879   1.000000   1.000000
     25         -4.653622       -4.653622   1.000000   1.000000
     26         -4.138982       -4.138982   1.000000   1.000000
     27         -4.127449       -4.127449   1.000000   1.000000
     28         -4.121745       -4.121744   1.000000   1.000000
     29         -4.117227       -4.117227   1.000000   1.000000
     30         -4.062866       -4.062866   1.000000   1.000000
     31         -4.045664       -4.045664   1.000000   1.000000
     32         -4.042310       -4.042310   1.000000   1.000000
     33         -4.024663       -4.024663   1.000000   1.000000
     34         -3.989583       -3.989583   1.000000   1.000000
     35         -3.585689       -3.585689   1.000000   1.000000
     36         -3.565121       -3.565121   1.000000   1.000000
     37         -3.560717       -3.560717   1.000000   1.000000
     38         -3.560513       -3.560513   1.000000   1.000000
     39         -3.560395       -3.560395   1.000000   1.000000
     40         -3.559844       -3.559844   1.000000   1.000000
     41         -3.557788       -3.557788   1.000000   1.000000
     42         -3.548843       -3.548843   1.000000   1.000000
     43         -3.333898       -3.333898   1.000000   1.000000
     44         -3.245411       -3.245411   1.000000   1.000000
     45         -3.169500       -3.169500   1.000000   1.000000
     46         -3.164028       -3.164028   1.000000   1.000000
     47         -3.162241       -3.162241   1.000000   1.000000
     48         -3.160555       -3.160555   1.000000   1.000000
     49         -3.159913       -3.159913   1.000000   1.000000
     50         -3.143116       -3.143116   1.000000   1.000000
     51         -3.132008       -3.132008   1.000000   1.000000
     52         -3.126292       -3.126291   1.000000   1.000000
     53         -3.120896       -3.120896   1.000000   1.000000
     54         -3.103755       -3.103755   1.000000   1.000000
     55         -3.083372       -3.083372   1.000000   1.000000
     56         -3.073883       -3.073883   1.000000   1.000000
     57         -3.066391       -3.066391   1.000000   1.000000
     58         -3.060222       -3.060222   1.000000   1.000000
     59         -3.038730       -3.038730   1.000000   1.000000
     60         -3.038073       -3.038073   1.000000   1.000000
     61         -3.037686       -3.037686   1.000000   1.000000
     62         -3.037671       -3.037671   1.000000   1.000000
     63         -3.036344       -3.036344   1.000000   1.000000
     64         -3.036237       -3.036237   1.000000   1.000000
     65         -3.036122       -3.036122   1.000000   1.000000
     66         -3.035284       -3.035284   1.000000   1.000000
     67         -3.006988       -3.006987   1.000000   1.000000
     68         -2.975394       -2.975394   1.000000   1.000000
     69         -2.969029       -2.969029   1.000000   1.000000
     70         -2.968912       -2.968912   1.000000   1.000000
     71         -2.968707       -2.968707   1.000000   1.000000
     72         -2.938035       -2.938035   1.000000   1.000000
     73         -2.913722       -2.913722   1.000000   1.000000
     74         -2.913411       -2.913410   1.000000   1.000000
     75         -2.912595       -2.912595   1.000000   1.000000
     76         -2.912033       -2.912033   1.000000   1.000000
     77         -2.885164       -2.885164   1.000000   1.000000
     78         -2.884714       -2.884714   1.000000   1.000000
     79         -2.881892       -2.881892   1.000000   1.000000
     80         -2.875453       -2.875454   1.000000   1.000000
     81         -2.871720       -2.871720   1.000000   1.000000
     82         -2.865821       -2.865821   1.000000   1.000000
     83         -2.747624       -2.747624   1.000000   1.000000
     84         -2.743537       -2.743537   1.000000   1.000000
     85         -2.743424       -2.743423   1.000000   1.000000
     86         -2.743092       -2.743091   1.000000   1.000000
     87         -2.742905       -2.742905   1.000000   1.000000
     88         -2.732613       -2.732612   1.000000   1.000000
     89         -2.731936       -2.731936   1.000000   1.000000
     90         -2.720275       -2.720275   1.000000   1.000000
     91         -2.719496       -2.719496   1.000000   1.000000
     92         -2.717636       -2.717636   1.000000   1.000000
     93         -2.717360       -2.717360   1.000000   1.000000
     94         -2.717290       -2.717290   1.000000   1.000000
     95         -2.716288       -2.716288   1.000000   1.000000
     96         -2.714312       -2.714312   1.000000   1.000000
     97         -2.713987       -2.713987   1.000000   1.000000
     98         -2.695805       -2.695805   1.000000   1.000000
     99         -2.693749       -2.693749   1.000000   1.000000
    100         -2.687972       -2.687972   1.000000   1.000000
    101         -2.670380       -2.670380   1.000000   1.000000
    102         -2.663437       -2.663437   1.000000   1.000000
    103         -2.661438       -2.661438   1.000000   1.000000
    104         -2.660945       -2.660945   1.000000   1.000000
    105         -2.660088       -2.660088   1.000000   1.000000
    106         -2.609447       -2.609447   1.000000   1.000000
    107         -2.605886       -2.605886   1.000000   1.000000
    108         -2.587169       -2.587169   1.000000   1.000000
    109         -2.530807       -2.530807   1.000000   1.000000
    110         -2.522606       -2.522606   1.000000   1.000000
    111         -2.503878       -2.503878   1.000000   1.000000
    112         -2.503605       -2.503605   1.000000   1.000000
    113         -2.473800       -2.473801   1.000000   1.000000
    114         -2.466627       -2.466627   1.000000   1.000000
    115         -2.465233       -2.465233   1.000000   1.000000
    116         -2.463014       -2.463014   1.000000   1.000000
    117         -2.448883       -2.448883   1.000000   1.000000
    118         -2.442810       -2.442810   1.000000   1.000000
    119         -2.441555       -2.441555   1.000000   1.000000
    120         -2.440000       -2.440000   1.000000   1.000000
    121         -2.439713       -2.439713   1.000000   1.000000
    122         -2.415125       -2.415125   1.000000   1.000000
    123         -2.415037       -2.415037   1.000000   1.000000
    124         -2.402396       -2.402396   1.000000   1.000000
    125         -2.402306       -2.402306   1.000000   1.000000
    126         -2.402280       -2.402280   1.000000   1.000000
    127         -2.401803       -2.401803   1.000000   1.000000
    128         -2.400456       -2.400456   1.000000   1.000000
    129         -2.387879       -2.387879   1.000000   1.000000
    130         -2.378511       -2.378511   1.000000   1.000000
    131         -2.378343       -2.378343   1.000000   1.000000
    132         -2.377507       -2.377507   1.000000   1.000000
    133         -2.375731       -2.375731   1.000000   1.000000
    134         -2.370401       -2.370401   1.000000   1.000000
    135         -2.369643       -2.369642   1.000000   1.000000
    136         -2.369626       -2.369626   1.000000   1.000000
    137         -2.368542       -2.368541   1.000000   1.000000
    138         -2.368452       -2.368452   1.000000   1.000000
    139         -2.367949       -2.367949   1.000000   1.000000
    140         -2.365349       -2.365349   1.000000   1.000000
    141         -2.365198       -2.365198   1.000000   1.000000
    142         -2.361302       -2.361302   1.000000   1.000000
    143         -2.330942       -2.330942   1.000000   1.000000
    144         -2.329527       -2.329527   1.000000   1.000000
    145         -2.328943       -2.328943   1.000000   1.000000
    146         -2.328124       -2.328123   1.000000   1.000000
    147         -2.328093       -2.328093   1.000000   1.000000
    148         -2.327216       -2.327216   1.000000   1.000000
    149         -2.326816       -2.326815   1.000000   1.000000
    150         -2.321340       -2.321340   1.000000   1.000000
    151         -2.317414       -2.317414   1.000000   1.000000
    152         -2.313254       -2.313254   1.000000   1.000000
    153         -2.311924       -2.311924   1.000000   1.000000
    154         -2.302291       -2.302291   1.000000   1.000000
    155         -2.272093       -2.272093   1.000000   1.000000
    156         -2.265996       -2.265996   1.000000   1.000000
    157         -2.263959       -2.263959   1.000000   1.000000
    158         -2.263958       -2.263957   1.000000   1.000000
    159         -2.259091       -2.259091   1.000000   1.000000
    160         -2.255331       -2.255331   1.000000   1.000000
    161         -2.237442       -2.237442   1.000000   1.000000
    162         -2.236659       -2.236659   1.000000   1.000000
    163         -2.234995       -2.234995   1.000000   1.000000
    164         -2.234908       -2.234908   1.000000   1.000000
    165         -2.234595       -2.234595   1.000000   1.000000
    166         -2.233617       -2.233617   1.000000   1.000000
    167         -2.231841       -2.231841   1.000000   1.000000
    168         -2.224949       -2.224949   1.000000   1.000000
    169         -2.224413       -2.224413   1.000000   1.000000
    170         -2.220169       -2.220169   1.000000   1.000000
    171         -2.218177       -2.218177   1.000000   1.000000
    172         -2.216209       -2.216209   1.000000   1.000000
    173         -2.213628       -2.213628   1.000000   1.000000
    174         -2.188658       -2.188658   1.000000   1.000000
    175         -2.176846       -2.176846   1.000000   1.000000
    176         -2.176122       -2.176122   1.000000   1.000000
    177         -2.176002       -2.176002   1.000000   1.000000
    178         -2.175894       -2.175894   1.000000   1.000000
    179         -2.095728       -2.095728   1.000000   1.000000
    180         -2.090288       -2.090288   1.000000   1.000000
    181         -2.088998       -2.088998   1.000000   1.000000
    182         -2.085174       -2.085174   1.000000   1.000000
    183         -2.079673       -2.079673   1.000000   1.000000
    184         -2.056257       -2.056257   1.000000   1.000000
    185         -2.054317       -2.054317   1.000000   1.000000
    186         -2.053837       -2.053837   1.000000   1.000000
    187         -2.039195       -2.039195   1.000000   1.000000
    188         -2.029824       -2.029824   1.000000   1.000000
    189         -2.028422       -2.028422   1.000000   1.000000
    190         -2.027499       -2.027499   1.000000   1.000000
    191         -2.021088       -2.021088   1.000000   1.000000
    192         -2.015964       -2.015964   1.000000   1.000000
    193         -1.996289       -1.996289   1.000000   1.000000
    194         -1.996147       -1.996147   1.000000   1.000000
    195         -1.992976       -1.992976   1.000000   1.000000
    196         -1.992399       -1.992399   1.000000   1.000000
    197         -1.991442       -1.991442   1.000000   1.000000
    198         -1.990868       -1.990868   1.000000   1.000000
    199         -1.989159       -1.989159   1.000000   1.000000
    200         -1.984935       -1.984935   1.000000   1.000000
    201         -1.963587       -1.963587   1.000000   1.000000
    202         -1.956778       -1.956778   1.000000   1.000000
    203         -1.910194       -1.910194   1.000000   1.000000
    204         -1.909646       -1.909645   1.000000   1.000000
    205         -1.906639       -1.906639   1.000000   1.000000
    206         -1.903017       -1.903017   1.000000   1.000000
    207         -1.898347       -1.898347   1.000000   1.000000
    208         -1.897975       -1.897975   1.000000   1.000000
    209         -1.896421       -1.896420   1.000000   1.000000
    210         -1.861285       -1.861285   1.000000   1.000000
    211         -1.848659       -1.848659   1.000000   1.000000
    212         -1.846057       -1.846057   1.000000   1.000000
    213         -1.843212       -1.843212   1.000000   1.000000
    214         -1.834235       -1.834235   1.000000   1.000000
    215         -1.833642       -1.833642   1.000000   1.000000
    216         -1.823386       -1.823386   1.000000   1.000000
    217         -1.820686       -1.820686   1.000000   1.000000
    218         -1.816820       -1.816820   1.000000   1.000000
    219         -1.811123       -1.811123   1.000000   1.000000
    220         -1.802991       -1.802991   1.000000   1.000000
    221         -1.802745       -1.802745   1.000000   1.000000
    222         -1.801585       -1.801585   1.000000   1.000000
    223         -1.799686       -1.799686   1.000000   1.000000
    224         -1.794677       -1.794677   1.000000   1.000000
    225         -1.789724       -1.789724   1.000000   1.000000
    226         -1.788103       -1.788103   1.000000   1.000000
    227         -1.786372       -1.786372   1.000000   1.000000
    228         -1.783336       -1.783336   1.000000   1.000000
    229         -1.782853       -1.782853   1.000000   1.000000
    230         -1.779333       -1.779333   1.000000   1.000000
    231         -1.778808       -1.778808   1.000000   1.000000
    232         -1.776294       -1.776294   1.000000   1.000000
    233         -1.715715       -1.715715   1.000000   1.000000
    234         -1.713299       -1.713299   1.000000   1.000000
    235         -1.712830       -1.712830   1.000000   1.000000
    236         -1.712150       -1.712150   1.000000   1.000000
    237         -1.711354       -1.711354   1.000000   1.000000
    238         -1.709704       -1.709704   1.000000   1.000000
    239         -1.708015       -1.708015   1.000000   1.000000
    240         -1.706232       -1.706232   1.000000   1.000000
    241         -1.698037       -1.698037   1.000000   1.000000
    242         -1.698024       -1.698024   1.000000   1.000000
    243         -1.696022       -1.696022   1.000000   1.000000
    244         -1.693342       -1.693342   1.000000   1.000000
    245         -1.692289       -1.692289   1.000000   1.000000
    246         -1.691012       -1.691012   1.000000   1.000000
    247         -1.690155       -1.690155   1.000000   1.000000
    248         -1.686502       -1.686502   1.000000   1.000000
    249         -1.675272       -1.675272   1.000000   1.000000
    250         -1.664976       -1.664976   1.000000   1.000000
    251         -1.664186       -1.664186   1.000000   1.000000
    252         -1.643593       -1.643593   1.000000   1.000000
    253         -1.615381       -1.615381   1.000000   1.000000
    254         -1.615298       -1.615298   1.000000   1.000000
    255         -1.612192       -1.612192   1.000000   1.000000
    256         -1.607971       -1.607971   1.000000   1.000000
    257         -1.607655       -1.607655   1.000000   1.000000
    258         -1.607370       -1.607370   1.000000   1.000000
    259         -1.607203       -1.607203   1.000000   1.000000
    260         -1.596547       -1.596547   1.000000   1.000000
    261         -1.588968       -1.588968   1.000000   1.000000
    262         -1.532476       -1.532476   1.000000   1.000000
    263         -1.530977       -1.530977   1.000000   1.000000
    264         -1.530431       -1.530431   1.000000   1.000000
    265         -1.529235       -1.529235   1.000000   1.000000
    266         -1.528465       -1.528465   1.000000   1.000000
    267         -1.526167       -1.526167   1.000000   1.000000
    268         -1.526161       -1.526161   1.000000   1.000000
    269         -1.525543       -1.525543   1.000000   1.000000
    270         -1.523736       -1.523736   1.000000   1.000000
    271         -1.522272       -1.522272   1.000000   1.000000
    272         -1.518846       -1.518846   1.000000   1.000000
    273         -1.512137       -1.512137   1.000000   1.000000
    274         -1.500764       -1.500764   1.000000   1.000000
    275         -1.499690       -1.499690   1.000000   1.000000
    276         -1.499046       -1.499045   1.000000   1.000000
    277         -1.498678       -1.498678   1.000000   1.000000
    278         -1.497165       -1.497165   1.000000   1.000000
    279         -1.493714       -1.493714   1.000000   1.000000
    280         -1.485955       -1.485955   1.000000   1.000000
    281         -1.465158       -1.465158   1.000000   1.000000
    282         -1.461018       -1.461018   1.000000   1.000000
    283         -1.459347       -1.459347   1.000000   1.000000
    284         -1.458025       -1.458025   1.000000   1.000000
    285         -1.456373       -1.456373   1.000000   1.000000
    286         -1.451580       -1.451580   1.000000   1.000000
    287         -1.447416       -1.447416   1.000000   1.000000
    288         -1.445739       -1.445739   1.000000   1.000000
    289         -1.442565       -1.442565   1.000000   1.000000
    290         -1.441837       -1.441837   1.000000   1.000000
    291         -1.441421       -1.441421   1.000000   1.000000
    292         -1.439468       -1.439468   1.000000   1.000000
    293         -1.418002       -1.418002   1.000000   1.000000
    294         -1.387422       -1.387422   1.000000   1.000000
    295         -1.383599       -1.383599   1.000000   1.000000
    296         -1.380431       -1.380431   1.000000   1.000000
    297         -1.372095       -1.372095   1.000000   1.000000
    298         -1.360387       -1.360387   1.000000   1.000000
    299         -1.360327       -1.360327   1.000000   1.000000
    300         -1.358373       -1.358373   1.000000   1.000000
    301         -1.357161       -1.357161   1.000000   1.000000
    302         -1.350424       -1.350424   1.000000   1.000000
    303         -1.346648       -1.346648   1.000000   1.000000
    304         -1.345998       -1.345998   1.000000   1.000000
    305         -1.345174       -1.345174   1.000000   1.000000
    306         -1.334941       -1.334941   1.000000   1.000000
    307         -1.334672       -1.334672   1.000000   1.000000
    308         -1.333509       -1.333509   1.000000   1.000000
    309         -1.330190       -1.330190   1.000000   1.000000
    310         -1.329981       -1.329981   1.000000   1.000000
    311         -1.325992       -1.325992   1.000000   1.000000
    312         -1.321985       -1.321985   1.000000   1.000000
    313         -1.319325       -1.319324   1.000000   1.000000
    314         -1.313251       -1.313251   1.000000   1.000000
    315         -1.308470       -1.308470   1.000000   1.000000
    316         -1.307600       -1.307600   1.000000   1.000000
    317         -1.304352       -1.304352   1.000000   1.000000
    318         -1.302410       -1.302410   1.000000   1.000000
    319         -1.300176       -1.300176   1.000000   1.000000
    320         -1.299448       -1.299448   1.000000   1.000000
    321         -1.298493       -1.298493   1.000000   1.000000
    322         -1.296565       -1.296565   1.000000   1.000000
    323         -1.296537       -1.296537   1.000000   1.000000
    324         -1.296131       -1.296131   1.000000   1.000000
    325         -1.294682       -1.294682   1.000000   1.000000
    326         -1.294381       -1.294381   1.000000   1.000000
    327         -1.293173       -1.293173   1.000000   1.000000
    328         -1.292910       -1.292910   1.000000   1.000000
    329         -1.291432       -1.291432   1.000000   1.000000
    330         -1.282442       -1.282442   1.000000   1.000000
    331         -1.276919       -1.276919   1.000000   1.000000
    332         -1.260109       -1.260109   1.000000   1.000000
    333         -1.258507       -1.258507   1.000000   1.000000
    334         -1.257815       -1.257815   1.000000   1.000000
    335         -1.254973       -1.254973   1.000000   1.000000
    336         -1.253809       -1.253809   1.000000   1.000000
    337         -1.252502       -1.252502   1.000000   1.000000
    338         -1.251981       -1.251981   1.000000   1.000000
    339         -1.250970       -1.250970   1.000000   1.000000
    340         -1.250281       -1.250281   1.000000   1.000000
    341         -1.249961       -1.249961   1.000000   1.000000
    342         -1.246660       -1.246660   1.000000   1.000000
    343         -1.242057       -1.242057   1.000000   1.000000
    344         -1.241984       -1.241984   1.000000   1.000000
    345         -1.241274       -1.241274   1.000000   1.000000
    346         -1.241024       -1.241024   1.000000   1.000000
    347         -1.224315       -1.224315   1.000000   1.000000
    348         -1.213087       -1.213087   1.000000   1.000000
    349         -1.212170       -1.212170   1.000000   1.000000
    350         -1.208704       -1.208704   1.000000   1.000000
    351         -1.199830       -1.199830   1.000000   1.000000
    352         -1.198630       -1.198630   1.000000   1.000000
    353         -1.196497       -1.196497   1.000000   1.000000
    354         -1.196255       -1.196255   1.000000   1.000000
    355         -1.193827       -1.193827   1.000000   1.000000
    356         -1.193524       -1.193523   1.000000   1.000000
    357         -1.193292       -1.193292   1.000000   1.000000
    358         -1.192852       -1.192852   1.000000   1.000000
    359         -1.184145       -1.184145   1.000000   1.000000
    360         -1.178576       -1.178576   1.000000   1.000000
    361         -1.178517       -1.178517   1.000000   1.000000
    362         -1.178016       -1.178016   1.000000   1.000000
    363         -1.177531       -1.177531   1.000000   1.000000
    364         -1.171059       -1.171059   1.000000   1.000000
    365         -1.161123       -1.161123   1.000000   1.000000
    366         -1.158143       -1.158143   1.000000   1.000000
    367         -1.157545       -1.157545   1.000000   1.000000
    368         -1.156125       -1.156125   1.000000   1.000000
    369         -1.155847       -1.155847   1.000000   1.000000
    370         -1.155798       -1.155798   1.000000   1.000000
    371         -1.153496       -1.153496   1.000000   1.000000
    372         -1.153313       -1.153313   1.000000   1.000000
    373         -1.150406       -1.150406   1.000000   1.000000
    374         -1.149865       -1.149865   1.000000   1.000000
    375         -1.148708       -1.148708   1.000000   1.000000
    376         -1.148091       -1.148091   1.000000   1.000000
    377         -1.148004       -1.148004   1.000000   1.000000
    378         -1.145576       -1.145576   1.000000   1.000000
    379         -1.144978       -1.144978   1.000000   1.000000
    380         -1.143718       -1.143718   1.000000   1.000000
    381         -1.143639       -1.143639   1.000000   1.000000
    382         -1.117798       -1.117798   1.000000   1.000000
    383         -1.115785       -1.115785   1.000000   1.000000
    384         -1.110317       -1.110317   1.000000   1.000000
    385         -1.108888       -1.108888   1.000000   1.000000
    386         -1.098462       -1.098462   1.000000   1.000000
    387         -1.098110       -1.098110   1.000000   1.000000
    388         -1.091366       -1.091366   1.000000   1.000000
    389         -1.090000       -1.090000   1.000000   1.000000
    390         -1.085172       -1.085172   1.000000   1.000000
    391         -1.078395       -1.078394   1.000000   1.000000
    392         -1.076240       -1.076240   1.000000   1.000000
    393         -1.074241       -1.074241   1.000000   1.000000
    394         -1.050189       -1.050189   1.000000   1.000000
    395         -1.022113       -1.022113   1.000000   1.000000
    396         -0.990593       -0.990593   1.000000   1.000000
    397         -0.989917       -0.989917   1.000000   1.000000
    398         -0.988469       -0.988469   1.000000   1.000000
    399         -0.986921       -0.986921   1.000000   1.000000
    400         -0.986469       -0.986469   1.000000   1.000000
    401         -0.985647       -0.985647   1.000000   1.000000
    402         -0.982525       -0.982525   1.000000   1.000000
    403         -0.977996       -0.977996   1.000000   1.000000
    404         -0.968616       -0.968616   1.000000   1.000000
    405         -0.967327       -0.967327   1.000000   1.000000
    406         -0.967310       -0.967310   1.000000   1.000000
    407         -0.965612       -0.965612   1.000000   1.000000
    408         -0.965474       -0.965474   1.000000   1.000000
    409         -0.954418       -0.954418   1.000000   1.000000
    410         -0.950537       -0.950537   1.000000   1.000000
    411         -0.950510       -0.950510   1.000000   1.000000
    412         -0.950059       -0.950059   1.000000   1.000000
    413         -0.947332       -0.947332   1.000000   1.000000
    414         -0.944974       -0.944974   1.000000   1.000000
    415         -0.944757       -0.944757   1.000000   1.000000
    416         -0.944677       -0.944677   1.000000   1.000000
    417         -0.942925       -0.942925   1.000000   1.000000
    418         -0.942619       -0.942619   1.000000   1.000000
    419         -0.936943       -0.936943   1.000000   1.000000
    420         -0.934934       -0.934934   1.000000   1.000000
    421         -0.934047       -0.934047   1.000000   1.000000
    422         -0.931281       -0.931281   1.000000   1.000000
    423         -0.922030       -0.922030   1.000000   1.000000
    424         -0.905852       -0.905852   1.000000   1.000000
    425         -0.902705       -0.902705   1.000000   1.000000
    426         -0.896035       -0.896035   1.000000   1.000000
    427         -0.895443       -0.895442   1.000000   1.000000
    428         -0.893195       -0.893195   1.000000   1.000000
    429         -0.892843       -0.892843   1.000000   1.000000
    430         -0.889725       -0.889725   1.000000   1.000000
    431         -0.884552       -0.884552   1.000000   1.000000
    432         -0.880830       -0.880830   1.000000   1.000000
    433         -0.872327       -0.872327   1.000000   1.000000
    434         -0.871541       -0.871541   1.000000   1.000000
    435         -0.869633       -0.869633   1.000000   1.000000
    436         -0.868853       -0.868853   1.000000   1.000000
    437         -0.860037       -0.860037   1.000000   1.000000
    438         -0.858177       -0.858177   1.000000   1.000000
    439         -0.856228       -0.856228   1.000000   1.000000
    440         -0.854463       -0.854463   1.000000   1.000000
    441         -0.854096       -0.854096   1.000000   1.000000
    442         -0.853312       -0.853312   1.000000   1.000000
    443         -0.852611       -0.852611   1.000000   1.000000
    444         -0.848806       -0.848806   1.000000   1.000000
    445         -0.847027       -0.847027   1.000000   1.000000
    446         -0.841444       -0.841444   1.000000   1.000000
    447         -0.839302       -0.839302   1.000000   1.000000
    448         -0.837895       -0.837895   1.000000   1.000000
    449         -0.827156       -0.827156   1.000000   1.000000
    450         -0.824424       -0.824424   1.000000   1.000000
    451         -0.813965       -0.813965   1.000000   1.000000
    452         -0.804142       -0.804142   1.000000   1.000000
    453         -0.792369       -0.792369   1.000000   1.000000
    454         -0.790213       -0.790213   1.000000   1.000000
    455         -0.787825       -0.787825   1.000000   1.000000
    456         -0.786524       -0.786524   1.000000   1.000000
    457         -0.786007       -0.786007   1.000000   1.000000
    458         -0.783738       -0.783738   1.000000   1.000000
    459         -0.774752       -0.774752   1.000000   1.000000
    460         -0.757971       -0.757971   1.000000   1.000000
    461         -0.755142       -0.755142   1.000000   1.000000
    462         -0.742801       -0.742801   1.000000   1.000000
    463         -0.737177       -0.737177   1.000000   1.000000
    464         -0.724052       -0.724052   1.000000   1.000000