unknown system                          
           1
    10.890000    0.000000    0.000000
     0.000000   10.890000    0.000000
     0.000000    0.000000   27.705000
   Cu   O 
   144     1
Direct configuration=     1
   0.00000000  0.00000000  0.00000000
   0.00000000  0.33333333  0.00000000
   0.00000000  0.66666667  0.00000000
   0.33333333  0.00000000  0.00000000
   0.33333333  0.33333333  0.00000000
   0.33333333  0.66666667  0.00000000
   0.66666667  0.00000000  0.00000000
   0.66666667  0.33333333  0.00000000
   0.66666667  0.66666667  0.00000000
   0.16666667  0.16666667  0.00000000
   0.16666667  0.50000000  0.00000000
   0.16666667  0.83333333  0.00000000
   0.50000000  0.16666667  0.00000000
   0.50000000  0.50000000  0.00000000
   0.50000000  0.83333333  0.00000000
   0.83333333  0.16666667  0.00000000
   0.83333333  0.50000000  0.00000000
   0.83333333  0.83333333  0.00000000
   0.00000000  0.16666667  0.06551164
   0.00000000  0.50000000  0.06551164
   0.00000000  0.83333333  0.06551164
   0.33333333  0.16666667  0.06551164
   0.33333333  0.50000000  0.06551164
   0.33333333  0.83333333  0.06551164
   0.66666667  0.16666667  0.06551164
   0.66666667  0.50000000  0.06551164
   0.66666667  0.83333333  0.06551164
   0.16666667  0.00000000  0.06551164
   0.16666667  0.33333333  0.06551164
   0.16666667  0.66666667  0.06551164
   0.50000000  0.00000000  0.06551164
   0.50000000  0.33333333  0.06551164
   0.50000000  0.66666667  0.06551164
   0.83333333  0.00000000  0.06551164
   0.83333333  0.33333333  0.06551164
   0.83333333  0.66666667  0.06551164
   0.00000000  0.00000000  0.13119553
   0.00000000  0.33333333  0.13119553
   0.00000000  0.66666667  0.13119553
   0.33333333  0.00000000  0.13119553
   0.33333333  0.33333333  0.13119553
   0.33333333  0.66666667  0.13119553
   0.66666667  0.00000000  0.13119553
   0.66666667  0.33333333  0.13119553
   0.66666667  0.66666667  0.13119553
   0.16666667  0.16666667  0.13119553
   0.16666667  0.50000000  0.13119553
   0.16666667  0.83333333  0.13119553
   0.50000000  0.16666667  0.13119553
   0.50000000  0.50000000  0.13119553
   0.50000000  0.83333333  0.13119553
   0.83333333  0.16666667  0.13119553
   0.83333333  0.50000000  0.13119553
   0.83333333  0.83333333  0.13119553
   0.00000000  0.16666667  0.19620680
   0.00000000  0.50000000  0.19620680
   0.00000000  0.83333333  0.19620680
   0.33333333  0.16666667  0.19620680
   0.33333333  0.50000000  0.19620680
   0.33333333  0.83333333  0.19620680
   0.66666667  0.16666667  0.19620680
   0.66666667  0.50000000  0.19620680
   0.66666667  0.83333333  0.19620680
   0.16666667  0.00000000  0.19620680
   0.16666667  0.33333333  0.19620680
   0.16666667  0.66666667  0.19620680
   0.50000000  0.00000000  0.19620680
   0.50000000  0.33333333  0.19620680
   0.50000000  0.66666667  0.19620680
   0.83333333  0.00000000  0.19620680
   0.83333333  0.33333333  0.19620680
   0.83333333  0.66666667  0.19620680
   0.00000000  0.00000000  0.25873860
   0.00000000  0.33333333  0.25873860
   0.00000000  0.66666667  0.25873860
   0.33333333  0.00000000  0.25873860
   0.33333333  0.33333333  0.25873860
   0.33333333  0.66666667  0.25873860
   0.66666667  0.00000000  0.25873860
   0.66666667  0.33333333  0.25873860
   0.66666667  0.66666667  0.25873860
   0.16666667  0.16666667  0.25873860
   0.16666667  0.50000000  0.25873860
   0.16666667  0.83333333  0.25873860
   0.50000000  0.16666667  0.25873860
   0.50000000  0.50000000  0.25873860
   0.50000000  0.83333333  0.25873860
   0.83333333  0.16666667  0.25873860
   0.83333333  0.50000000  0.25873860
   0.83333333  0.83333333  0.25873860
   0.00000000  0.16666667  0.32119954
   0.00000000  0.50000000  0.32119954
   0.00000000  0.83333333  0.32119954
   0.33333333  0.16666667  0.32119954
   0.33333333  0.50000000  0.32119954
   0.33333333  0.83333333  0.32119954
   0.66666667  0.16666667  0.32119954
   0.66666667  0.50000000  0.32119954
   0.66666667  0.83333333  0.32119954
   0.16666667  0.00000000  0.32119954
   0.16666667  0.33333333  0.32119954
   0.16666667  0.66666667  0.32119954
   0.50000000  0.00000000  0.32119954
   0.50000000  0.33333333  0.32119954
   0.50000000  0.66666667  0.32119954
   0.83333333  0.00000000  0.32119954
   0.83333333  0.33333333  0.32119954
   0.83333333  0.66666667  0.32119954
   0.00000000  0.00000000  0.38476372
   0.00000000  0.33333333  0.38476372
   0.00000000  0.66666667  0.38476372
   0.33333333  0.00000000  0.38476372
   0.33333333  0.33333333  0.38476372
   0.33333333  0.66666667  0.38476372
   0.66666667  0.00000000  0.38476372
   0.66666667  0.33333333  0.38476372
   0.66666667  0.66666667  0.38476372
   0.16666667  0.16666667  0.38476372
   0.16666667  0.50000000  0.38476372
   0.16666667  0.83333333  0.38476372
   0.50000000  0.16666667  0.38476372
   0.50000000  0.50000000  0.38476372
   0.50000000  0.83333333  0.38476372
   0.83333333  0.16666667  0.38476372
   0.83333333  0.50000000  0.38476372
   0.83333333  0.83333333  0.38476372
   0.00000000  0.16666667  0.44736473
   0.00000000  0.50000000  0.44736473
   0.00000000  0.83333333  0.44736473
   0.33333333  0.16666667  0.44736473
   0.33333333  0.50000000  0.44736473
   0.33333333  0.83333333  0.44736473
   0.66666667  0.16666667  0.44736473
   0.66666667  0.50000000  0.44736473
   0.66666667  0.83333333  0.44736473
   0.16666667  0.00000000  0.44736473
   0.16666667  0.33333333  0.44736473
   0.16666667  0.66666667  0.44736473
   0.50000000  0.00000000  0.44736473
   0.50000000  0.33333333  0.44736473
   0.50000000  0.66666667  0.44736473
   0.83333333  0.00000000  0.44736473
   0.83333333  0.33333333  0.44736473
   0.83333333  0.66666667  0.44736473
   0.25000000  0.41666667  0.50150658
Direct configuration=     2
   0.00000000  0.00000000  0.00000000
   0.00000000  0.33333333  0.00000000
   0.00000000  0.66666667  0.00000000
   0.33333333  0.00000000  0.00000000
   0.33333333  0.33333333  0.00000000
   0.33333333  0.66666667  0.00000000
   0.66666667  0.00000000  0.00000000
   0.66666667  0.33333333  0.00000000
   0.66666667  0.66666667  0.00000000
   0.16666667  0.16666667  0.00000000
   0.16666667  0.50000000  0.00000000
   0.16666667  0.83333333  0.00000000
   0.50000000  0.16666667  0.00000000
   0.50000000  0.50000000  0.00000000
   0.50000000  0.83333333  0.00000000
   0.83333333  0.16666667  0.00000000
   0.83333333  0.50000000  0.00000000
   0.83333333  0.83333333  0.00000000
   0.00000000  0.16666667  0.06551164
   0.00000000  0.50000000  0.06551164
   0.00000000  0.83333333  0.06551164
   0.33333333  0.16666667  0.06551164
   0.33333333  0.50000000  0.06551164
   0.33333333  0.83333333  0.06551164
   0.66666667  0.16666667  0.06551164
   0.66666667  0.50000000  0.06551164
   0.66666667  0.83333333  0.06551164
   0.16666667  0.00000000  0.06551164
   0.16666667  0.33333333  0.06551164
   0.16666667  0.66666667  0.06551164
   0.50000000  0.00000000  0.06551164
   0.50000000  0.33333333  0.06551164
   0.50000000  0.66666667  0.06551164
   0.83333333  0.00000000  0.06551164
   0.83333333  0.33333333  0.06551164
   0.83333333  0.66666667  0.06551164
   0.00000000  0.00000000  0.13119553
   0.00000000  0.33333333  0.13119553
   0.00000000  0.66666667  0.13119553
   0.33333333  0.00000000  0.13119553
   0.33333333  0.33333333  0.13119553
   0.33333333  0.66666667  0.13119553
   0.66666667  0.00000000  0.13119553
   0.66666667  0.33333333  0.13119553
   0.66666667  0.66666667  0.13119553
   0.16666667  0.16666667  0.13119553
   0.16666667  0.50000000  0.13119553
   0.16666667  0.83333333  0.13119553
   0.50000000  0.16666667  0.13119553
   0.50000000  0.50000000  0.13119553
   0.50000000  0.83333333  0.13119553
   0.83333333  0.16666667  0.13119553
   0.83333333  0.50000000  0.13119553
   0.83333333  0.83333333  0.13119553
   0.00001055  0.16667721  0.19572062
   0.00003501  0.49998027  0.19572446
  -0.00000775  0.83333356  0.19574498
   0.33331360  0.16670168  0.19572446
   0.33330977  0.49997644  0.19574844
   0.33334822  0.83331105  0.19576983
   0.66666689  0.16665892  0.19574498
   0.66664438  0.50001489  0.19576983
   0.66665937  0.83332604  0.19572640
   0.16665178  0.00002229  0.19576983
   0.16669023  0.33335689  0.19574844
   0.16668640  0.66663165  0.19572446
   0.50000775 -0.00000023  0.19574498
   0.49996499  0.33335306  0.19572446
   0.49998945  0.66665612  0.19572062
   0.83334063  0.00000729  0.19572640
   0.83335562  0.33331844  0.19576983
   0.83333311  0.66667441  0.19574498
   0.00003038 -0.00001346  0.25867646
  -0.00001497  0.33334339  0.25873196
   0.00002561  0.66664106  0.25870940
   0.33332695  0.00002619  0.25867858
   0.33334942  0.33331724  0.25869407
   0.33332328  0.66668164  0.25873196
   0.66666695 -0.00000029  0.25867883
   0.66664048  0.33333971  0.25867858
   0.66668013  0.66663629  0.25867646
   0.16667672  0.16665170  0.25873196
   0.16665058  0.50001609  0.25869407
   0.16667305  0.83330715  0.25867858
   0.49997439  0.16669228  0.25870940
   0.50001497  0.49998994  0.25873196
   0.49996962  0.83334679  0.25867646
   0.83331987  0.16669704  0.25867646
   0.83335952  0.49999362  0.25867858
   0.83333305  0.83333362  0.25867883
  -0.00006937  0.16659729  0.32122147
  -0.00000743  0.50000269  0.32129498
  -0.00006868  0.83335786  0.32128708
   0.33333602  0.16665924  0.32129498
   0.33336835  0.50003502  0.32136045
   0.33337839  0.83337584  0.32128628
   0.66669119  0.16659799  0.32128708
   0.66670918  0.50004505  0.32128628
   0.66663977  0.83330644  0.32130275
   0.16662161 -0.00004251  0.32128628
   0.16663165  0.33329832  0.32136045
   0.16666398  0.66667410  0.32129498
   0.50006868 -0.00002453  0.32128708
   0.50000743  0.33333064  0.32129498
   0.50006937  0.66673604  0.32122147
   0.83336023  0.00002689  0.32130275
   0.83329082  0.33328828  0.32128628
   0.83330881  0.66673535  0.32128708
   0.00000515 -0.00006652  0.38481585
   0.00031787  0.33322105  0.38479670
   0.00012242  0.66654425  0.38486715
   0.33325882  0.00012710  0.38485974
   0.33351857  0.33314810  0.38438061
   0.33344561  0.66634880  0.38479670
   0.66668419 -0.00001752  0.38479937
   0.66653957  0.33340785  0.38485974
   0.66673319  0.66666152  0.38481585
   0.16655439  0.16698453  0.38479670
   0.16648143  0.50018523  0.38438061
   0.16674118  0.83320623  0.38485974
   0.49987758  0.16678908  0.38486715
   0.49968213  0.50011228  0.38479670
   0.49999485  0.83339985  0.38481585
   0.83326681  0.16667182  0.38481585
   0.83346043  0.49992549  0.38485974
   0.83331581  0.83335086  0.38479937
  -0.00008103  0.16658563  0.44722233
  -0.00056183  0.50023156  0.44737320
  -0.00002037  0.83327464  0.44734569
   0.33356489  0.16610484  0.44737320
   0.33218873  0.49885540  0.44967150
   0.33337695  0.83340845  0.44731802
   0.66660797  0.16664629  0.44734569
   0.66674178  0.50004361  0.44731802
   0.66663467  0.83330133  0.44734828
   0.16662305 -0.00007511  0.44731802
   0.16781127  0.33447794  0.44967150
   0.16643511  0.66722849  0.44737320
   0.50002037  0.00005869  0.44734569
   0.50056183  0.33310177  0.44737320
   0.50008103  0.66674770  0.44722233
   0.83336533  0.00003200  0.44734828
   0.83325822  0.33328972  0.44731802
   0.83339203  0.66668704  0.44734569
   0.25000000  0.41666667  0.49762941
Direct configuration=     3
   0.00000000  0.00000000  0.00000000
   0.00000000  0.33333333  0.00000000
   0.00000000  0.66666667  0.00000000
   0.33333333  0.00000000  0.00000000
   0.33333333  0.33333333  0.00000000
   0.33333333  0.66666667  0.00000000
   0.66666667  0.00000000  0.00000000
   0.66666667  0.33333333  0.00000000
   0.66666667  0.66666667  0.00000000
   0.16666667  0.16666667  0.00000000
   0.16666667  0.50000000  0.00000000
   0.16666667  0.83333333  0.00000000
   0.50000000  0.16666667  0.00000000
   0.50000000  0.50000000  0.00000000
   0.50000000  0.83333333  0.00000000
   0.83333333  0.16666667  0.00000000
   0.83333333  0.50000000  0.00000000
   0.83333333  0.83333333  0.00000000
   0.00000000  0.16666667  0.06551164
   0.00000000  0.50000000  0.06551164
   0.00000000  0.83333333  0.06551164
   0.33333333  0.16666667  0.06551164
   0.33333333  0.50000000  0.06551164
   0.33333333  0.83333333  0.06551164
   0.66666667  0.16666667  0.06551164
   0.66666667  0.50000000  0.06551164
   0.66666667  0.83333333  0.06551164
   0.16666667  0.00000000  0.06551164
   0.16666667  0.33333333  0.06551164
   0.16666667  0.66666667  0.06551164
   0.50000000  0.00000000  0.06551164
   0.50000000  0.33333333  0.06551164
   0.50000000  0.66666667  0.06551164
   0.83333333  0.00000000  0.06551164
   0.83333333  0.33333333  0.06551164
   0.83333333  0.66666667  0.06551164
   0.00000000  0.00000000  0.13119553
   0.00000000  0.33333333  0.13119553
   0.00000000  0.66666667  0.13119553
   0.33333333  0.00000000  0.13119553
   0.33333333  0.33333333  0.13119553
   0.33333333  0.66666667  0.13119553
   0.66666667  0.00000000  0.13119553
   0.66666667  0.33333333  0.13119553
   0.66666667  0.66666667  0.13119553
   0.16666667  0.16666667  0.13119553
   0.16666667  0.50000000  0.13119553
   0.16666667  0.83333333  0.13119553
   0.50000000  0.16666667  0.13119553
   0.50000000  0.50000000  0.13119553
   0.50000000  0.83333333  0.13119553
   0.83333333  0.16666667  0.13119553
   0.83333333  0.50000000  0.13119553
   0.83333333  0.83333333  0.13119553
   0.00001220  0.16667886  0.19564447
   0.00004050  0.49997718  0.19564892
  -0.00000896  0.83333360  0.19567266
   0.33331051  0.16670716  0.19564892
   0.33330608  0.49997275  0.19567665
   0.33335056  0.83330756  0.19570140
   0.66666693  0.16665771  0.19567266
   0.66664089  0.50001722  0.19570140
   0.66665823  0.83332490  0.19565116
   0.16664944  0.00002578  0.19570140
   0.16669392  0.33336059  0.19567665
   0.16668949  0.66662617  0.19564892
   0.50000896 -0.00000026  0.19567266
   0.49995950  0.33335615  0.19564892
   0.49998780  0.66665447  0.19564447
   0.83334177  0.00000844  0.19565116
   0.83335911  0.33331611  0.19570140
   0.83333307  0.66667562  0.19567266
   0.00003513 -0.00001557  0.25866673
  -0.00001731  0.33334497  0.25873093
   0.00002962  0.66663705  0.25870482
   0.33332596  0.00003029  0.25866918
   0.33335194  0.33331472  0.25868709
   0.33332170  0.66668398  0.25873093
   0.66666700 -0.00000033  0.25866947
   0.66663638  0.33334071  0.25866918
   0.66668224  0.66663153  0.25866673
   0.16667830  0.16664935  0.25873093
   0.16664806  0.50001861  0.25868709
   0.16667404  0.83330305  0.25866918
   0.49997038  0.16669629  0.25870482
   0.50001731  0.49998837  0.25873093
   0.49996487  0.83334890  0.25866673
   0.83331776  0.16670180  0.25866673
   0.83336362  0.49999262  0.25866918
   0.83333300  0.83333367  0.25866947
  -0.00008024  0.16658643  0.32122490
  -0.00000860  0.50000311  0.32130993
  -0.00007944  0.83336170  0.32130079
   0.33333645  0.16665807  0.32130993
   0.33337383  0.50004050  0.32138565
   0.33338544  0.83338250  0.32129986
   0.66669504  0.16658723  0.32130079
   0.66671584  0.50005211  0.32129986
   0.66663556  0.83330223  0.32131891
   0.16661456 -0.00004917  0.32129986
   0.16662617  0.33329283  0.32138565
   0.16666355  0.66667526  0.32130993
   0.50007944 -0.00002837  0.32130079
   0.50000860  0.33333022  0.32130993
   0.50008024  0.66674690  0.32122490
   0.83336444  0.00003111  0.32131891
   0.83328416  0.33328122  0.32129986
   0.83330496  0.66674610  0.32130079
   0.00000596 -0.00007694  0.38482402
   0.00036765  0.33320347  0.38480187
   0.00014159  0.66652508  0.38488335
   0.33324715  0.00014701  0.38487478
   0.33354758  0.33311909  0.38432061
   0.33346320  0.66629902  0.38480187
   0.66668693 -0.00002027  0.38480495
   0.66651966  0.33341952  0.38487478
   0.66674360  0.66666071  0.38482402
   0.16653680  0.16703432  0.38480187
   0.16645242  0.50021424  0.38432061
   0.16675285  0.83318633  0.38487478
   0.49985841  0.16680826  0.38488335
   0.49963235  0.50012987  0.38480187
   0.49999404  0.83341027  0.38482402
   0.83325640  0.16667262  0.38482402
   0.83348034  0.49991382  0.38487478
   0.83331307  0.83335360  0.38480495
  -0.00009373  0.16657294  0.44720003
  -0.00064982  0.50026782  0.44737453
  -0.00002357  0.83326545  0.44734271
   0.33360116  0.16601685  0.44737453
   0.33200946  0.49867613  0.45003278
   0.33338378  0.83342021  0.44731070
   0.66659878  0.16664310  0.44734271
   0.66675354  0.50005044  0.44731070
   0.66662965  0.83329632  0.44734571
   0.16661622 -0.00008688  0.44731070
   0.16799054  0.33465720  0.45003278
   0.16639884  0.66731648  0.44737453
   0.50002357  0.00006788  0.44734271
   0.50064982  0.33306551  0.44737453
   0.50009373  0.66676039  0.44720003
   0.83337035  0.00003701  0.44734571
   0.83324646  0.33328289  0.44731070
   0.83340122  0.66669023  0.44734271
   0.25000000  0.41666667  0.49702218
Direct configuration=     4
   0.00000000  0.00000000  0.00000000
   0.00000000  0.33333333  0.00000000
   0.00000000  0.66666667  0.00000000
   0.33333333  0.00000000  0.00000000
   0.33333333  0.33333333  0.00000000
   0.33333333  0.66666667  0.00000000
   0.66666667  0.00000000  0.00000000
   0.66666667  0.33333333  0.00000000
   0.66666667  0.66666667  0.00000000
   0.16666667  0.16666667  0.00000000
   0.16666667  0.50000000  0.00000000
   0.16666667  0.83333333  0.00000000
   0.50000000  0.16666667  0.00000000
   0.50000000  0.50000000  0.00000000
   0.50000000  0.83333333  0.00000000
   0.83333333  0.16666667  0.00000000
   0.83333333  0.50000000  0.00000000
   0.83333333  0.83333333  0.00000000
   0.00000000  0.16666667  0.06551164
   0.00000000  0.50000000  0.06551164
   0.00000000  0.83333333  0.06551164
   0.33333333  0.16666667  0.06551164
   0.33333333  0.50000000  0.06551164
   0.33333333  0.83333333  0.06551164
   0.66666667  0.16666667  0.06551164
   0.66666667  0.50000000  0.06551164
   0.66666667  0.83333333  0.06551164
   0.16666667  0.00000000  0.06551164
   0.16666667  0.33333333  0.06551164
   0.16666667  0.66666667  0.06551164
   0.50000000  0.00000000  0.06551164
   0.50000000  0.33333333  0.06551164
   0.50000000  0.66666667  0.06551164
   0.83333333  0.00000000  0.06551164
   0.83333333  0.33333333  0.06551164
   0.83333333  0.66666667  0.06551164
   0.00000000  0.00000000  0.13119553
   0.00000000  0.33333333  0.13119553
   0.00000000  0.66666667  0.13119553
   0.33333333  0.00000000  0.13119553
   0.33333333  0.33333333  0.13119553
   0.33333333  0.66666667  0.13119553
   0.66666667  0.00000000  0.13119553
   0.66666667  0.33333333  0.13119553
   0.66666667  0.66666667  0.13119553
   0.16666667  0.16666667  0.13119553
   0.16666667  0.50000000  0.13119553
   0.16666667  0.83333333  0.13119553
   0.50000000  0.16666667  0.13119553
   0.50000000  0.50000000  0.13119553
   0.50000000  0.83333333  0.13119553
   0.83333333  0.16666667  0.13119553
   0.83333333  0.50000000  0.13119553
   0.83333333  0.83333333  0.13119553
   0.00003070  0.16669736  0.19527772
   0.00006185  0.49995369  0.19528369
  -0.00001380  0.83332742  0.19531501
   0.33328703  0.16672852  0.19528369
   0.33329257  0.49995923  0.19533742
   0.33335825  0.83329254  0.19536482
   0.66666076  0.16665286  0.19531501
   0.66662588  0.50002491  0.19536482
   0.66665263  0.83331930  0.19528091
   0.16664175  0.00004079  0.19536482
   0.16670743  0.33337410  0.19533742
   0.16671297  0.66660481  0.19528369
   0.50001380  0.00000591  0.19531501
   0.49993815  0.33337964  0.19528369
   0.49996930  0.66663597  0.19527772
   0.83334737  0.00001404  0.19528091
   0.83337412  0.33330842  0.19536482
   0.83333924  0.66668047  0.19531501
   0.00004634 -0.00003396  0.25852375
  -0.00001971  0.33335644  0.25863179
   0.00005022  0.66661644  0.25858547
   0.33332571  0.00006880  0.25853932
   0.33335917  0.33330749  0.25856342
   0.33331023  0.66668638  0.25863179
   0.66667794 -0.00001127  0.25853541
   0.66659787  0.33334095  0.25853932
   0.66670063  0.66662033  0.25852375
   0.16668977  0.16664695  0.25863179
   0.16664083  0.50002584  0.25856342
   0.16667429  0.83326454  0.25853932
   0.49994978  0.16671689  0.25858547
   0.50001971  0.49997689  0.25863179
   0.49995366  0.83336730  0.25852375
   0.83329937  0.16671301  0.25852375
   0.83340213  0.49999238  0.25853932
   0.83332206  0.83334461  0.25853541
  -0.00015598  0.16651068  0.32123228
  -0.00010096  0.49999497  0.32136273
  -0.00012734  0.83336513  0.32136056
   0.33332830  0.16656570  0.32136273
   0.33344124  0.50010791  0.32144992
   0.33341445  0.83343589  0.32137057
   0.66669846  0.16653932  0.32136056
   0.66676922  0.50008112  0.32137057
   0.66661748  0.83328415  0.32137635
   0.16658555 -0.00010255  0.32137057
   0.16655876  0.33322542  0.32144992
   0.16667170  0.66676763  0.32136273
   0.50012734 -0.00003180  0.32136056
   0.50010096  0.33333837  0.32136273
   0.50015598  0.66682265  0.32123228
   0.83338252  0.00004919  0.32137635
   0.83323078  0.33325222  0.32137057
   0.83330154  0.66679401  0.32136056
   0.00001728 -0.00015928  0.38487222
   0.00097445  0.33311096  0.38500360
   0.00020930  0.66645737  0.38497496
   0.33316137  0.00022931  0.38494529
   0.33346465  0.33320201  0.38421069
   0.33355571  0.66569221  0.38500360
   0.66669534 -0.00002867  0.38485088
   0.66643736  0.33350530  0.38494529
   0.66682594  0.66664938  0.38487222
   0.16644429  0.16764112  0.38500360
   0.16653535  0.50013132  0.38421069
   0.16683863  0.83310402  0.38494529
   0.49979070  0.16687597  0.38497496
   0.49902555  0.50022237  0.38500360
   0.49998272  0.83349261  0.38487222
   0.83317406  0.16668395  0.38487222
   0.83356264  0.49982803  0.38494529
   0.83330466  0.83336201  0.38485088
   0.00001729  0.16668396  0.44706809
  -0.00128066  0.50048942  0.44731946
  -0.00008600  0.83322940  0.44734381
   0.33382275  0.16538601  0.44731946
   0.33429993  0.50096660  0.45040296
   0.33345650  0.83345196  0.44727677
   0.66656274  0.16658067  0.44734381
   0.66678529  0.50012316  0.44727677
   0.66661496  0.83328163  0.44734259
   0.16654350 -0.00011862  0.44727677
   0.16570007  0.33236673  0.45040296
   0.16617725  0.66794733  0.44731946
   0.50008600  0.00010393  0.44734381
   0.50128066  0.33284391  0.44731946
   0.49998271  0.66664938  0.44706809
   0.83338504  0.00005171  0.44734259
   0.83321471  0.33321017  0.44727677
   0.83343726  0.66675266  0.44734381
   0.25000000  0.41666667  0.49648593
Direct configuration=     5
   0.00000000  0.00000000  0.00000000
   0.00000000  0.33333333  0.00000000
   0.00000000  0.66666667  0.00000000
   0.33333333  0.00000000  0.00000000
   0.33333333  0.33333333  0.00000000
   0.33333333  0.66666667  0.00000000
   0.66666667  0.00000000  0.00000000
   0.66666667  0.33333333  0.00000000
   0.66666667  0.66666667  0.00000000
   0.16666667  0.16666667  0.00000000
   0.16666667  0.50000000  0.00000000
   0.16666667  0.83333333  0.00000000
   0.50000000  0.16666667  0.00000000
   0.50000000  0.50000000  0.00000000
   0.50000000  0.83333333  0.00000000
   0.83333333  0.16666667  0.00000000
   0.83333333  0.50000000  0.00000000
   0.83333333  0.83333333  0.00000000
   0.00000000  0.16666667  0.06551164
   0.00000000  0.50000000  0.06551164
   0.00000000  0.83333333  0.06551164
   0.33333333  0.16666667  0.06551164
   0.33333333  0.50000000  0.06551164
   0.33333333  0.83333333  0.06551164
   0.66666667  0.16666667  0.06551164
   0.66666667  0.50000000  0.06551164
   0.66666667  0.83333333  0.06551164
   0.16666667  0.00000000  0.06551164
   0.16666667  0.33333333  0.06551164
   0.16666667  0.66666667  0.06551164
   0.50000000  0.00000000  0.06551164
   0.50000000  0.33333333  0.06551164
   0.50000000  0.66666667  0.06551164
   0.83333333  0.00000000  0.06551164
   0.83333333  0.33333333  0.06551164
   0.83333333  0.66666667  0.06551164
   0.00000000  0.00000000  0.13119553
   0.00000000  0.33333333  0.13119553
   0.00000000  0.66666667  0.13119553
   0.33333333  0.00000000  0.13119553
   0.33333333  0.33333333  0.13119553
   0.33333333  0.66666667  0.13119553
   0.66666667  0.00000000  0.13119553
   0.66666667  0.33333333  0.13119553
   0.66666667  0.66666667  0.13119553
   0.16666667  0.16666667  0.13119553
   0.16666667  0.50000000  0.13119553
   0.16666667  0.83333333  0.13119553
   0.50000000  0.16666667  0.13119553
   0.50000000  0.50000000  0.13119553
   0.50000000  0.83333333  0.13119553
   0.83333333  0.16666667  0.13119553
   0.83333333  0.50000000  0.13119553
   0.83333333  0.83333333  0.13119553
   0.00005081  0.16671747  0.19487895
   0.00008507  0.49992816  0.19488658
  -0.00001907  0.83332071  0.19492615
   0.33326149  0.16675174  0.19488658
   0.33327787  0.49994454  0.19496858
   0.33336661  0.83327622  0.19499887
   0.66665405  0.16664760  0.19492615
   0.66660955  0.50003328  0.19499887
   0.66664654  0.83331321  0.19487835
   0.16663339  0.00005711  0.19499887
   0.16672213  0.33338879  0.19496858
   0.16673851  0.66658160  0.19488658
   0.50001907  0.00001262  0.19492615
   0.49991493  0.33340518  0.19488658
   0.49994919  0.66661586  0.19487895
   0.83335346  0.00002013  0.19487835
   0.83339045  0.33330006  0.19499887
   0.83334595  0.66668574  0.19492615
   0.00005853 -0.00005396  0.25836830
  -0.00002232  0.33336892  0.25852400
   0.00007263  0.66659404  0.25845571
   0.33332545  0.00011067  0.25839812
   0.33336703  0.33329963  0.25842896
   0.33329775  0.66668899  0.25852400
   0.66668984 -0.00002317  0.25838965
   0.66655600  0.33334122  0.25839812
   0.66672063  0.66660814  0.25836830
   0.16670225  0.16664434  0.25852400
   0.16663297  0.50003370  0.25842896
   0.16667455  0.83322266  0.25839812
   0.49992737  0.16673929  0.25845571
   0.50002232  0.49996441  0.25852400
   0.49994147  0.83338729  0.25836830
   0.83327937  0.16672519  0.25836830
   0.83344400  0.49999212  0.25839812
   0.83331016  0.83335650  0.25838965
  -0.00023834  0.16642833  0.32124031
  -0.00020139  0.49998611  0.32142015
  -0.00017943  0.83336885  0.32142556
   0.33331945  0.16646528  0.32142015
   0.33351454  0.50018120  0.32151980
   0.33344599  0.83349393  0.32144745
   0.66670219  0.16648724  0.32142556
   0.66682726  0.50011266  0.32144745
   0.66659782  0.83326449  0.32143880
   0.16655401 -0.00016059  0.32144745
   0.16648546  0.33315213  0.32151980
   0.16668055  0.66686806  0.32142015
   0.50017943 -0.00003552  0.32142556
   0.50020139  0.33334722  0.32142015
   0.50023834  0.66690501  0.32124031
   0.83340218  0.00006884  0.32143880
   0.83317274  0.33322068  0.32144745
   0.83329781  0.66684610  0.32142556
   0.00002960 -0.00024880  0.38492462
   0.00163422  0.33301038  0.38522294
   0.00028292  0.66638374  0.38507456
   0.33306809  0.00031880  0.38502195
   0.33337449  0.33329217  0.38409119
   0.33365629  0.66503245  0.38522294
   0.66670448 -0.00003781  0.38490082
   0.66634787  0.33359857  0.38502195
   0.66691546  0.66663707  0.38492462
   0.16634371  0.16830088  0.38522294
   0.16662551  0.50004116  0.38409119
   0.16693191  0.83301454  0.38502195
   0.49971708  0.16694959  0.38507456
   0.49836578  0.50032295  0.38522294
   0.49997040  0.83358213  0.38492462
   0.83308454  0.16669627  0.38492462
   0.83365213  0.49973476  0.38502195
   0.83329552  0.83337114  0.38490082
   0.00013799  0.16680466  0.44692463
  -0.00196656  0.50073036  0.44725960
  -0.00015388  0.83319021  0.44734501
   0.33406369  0.16470011  0.44725960
   0.33679032  0.50345698  0.45080545
   0.33353556  0.83348647  0.44723988
   0.66652355  0.16651279  0.44734501
   0.66681980  0.50020223  0.44723988
   0.66659898  0.83326565  0.44733920
   0.16646444 -0.00015314  0.44723988
   0.16320968  0.32987635  0.45080545
   0.16593631  0.66863323  0.44725960
   0.50015388  0.00014312  0.44734501
   0.50196656  0.33260298  0.44725960
   0.49986201  0.66652867  0.44692463
   0.83340102  0.00006768  0.44733920
   0.83318020  0.33313110  0.44723988
   0.83347645  0.66682055  0.44734501
   0.25000000  0.41666667  0.49590289
Direct configuration=     6
   0.00000000  0.00000000  0.00000000
   0.00000000  0.33333333  0.00000000
   0.00000000  0.66666667  0.00000000
   0.33333333  0.00000000  0.00000000
   0.33333333  0.33333333  0.00000000
   0.33333333  0.66666667  0.00000000
   0.66666667  0.00000000  0.00000000
   0.66666667  0.33333333  0.00000000
   0.66666667  0.66666667  0.00000000
   0.16666667  0.16666667  0.00000000
   0.16666667  0.50000000  0.00000000
   0.16666667  0.83333333  0.00000000
   0.50000000  0.16666667  0.00000000
   0.50000000  0.50000000  0.00000000
   0.50000000  0.83333333  0.00000000
   0.83333333  0.16666667  0.00000000
   0.83333333  0.50000000  0.00000000
   0.83333333  0.83333333  0.00000000
   0.00000000  0.16666667  0.06551164
   0.00000000  0.50000000  0.06551164
   0.00000000  0.83333333  0.06551164
   0.33333333  0.16666667  0.06551164
   0.33333333  0.50000000  0.06551164
   0.33333333  0.83333333  0.06551164
   0.66666667  0.16666667  0.06551164
   0.66666667  0.50000000  0.06551164
   0.66666667  0.83333333  0.06551164
   0.16666667  0.00000000  0.06551164
   0.16666667  0.33333333  0.06551164
   0.16666667  0.66666667  0.06551164
   0.50000000  0.00000000  0.06551164
   0.50000000  0.33333333  0.06551164
   0.50000000  0.66666667  0.06551164
   0.83333333  0.00000000  0.06551164
   0.83333333  0.33333333  0.06551164
   0.83333333  0.66666667  0.06551164
   0.00000000  0.00000000  0.13119553
   0.00000000  0.33333333  0.13119553
   0.00000000  0.66666667  0.13119553
   0.33333333  0.00000000  0.13119553
   0.33333333  0.33333333  0.13119553
   0.33333333  0.66666667  0.13119553
   0.66666667  0.00000000  0.13119553
   0.66666667  0.33333333  0.13119553
   0.66666667  0.66666667  0.13119553
   0.16666667  0.16666667  0.13119553
   0.16666667  0.50000000  0.13119553
   0.16666667  0.83333333  0.13119553
   0.50000000  0.16666667  0.13119553
   0.50000000  0.50000000  0.13119553
   0.50000000  0.83333333  0.13119553
   0.83333333  0.16666667  0.13119553
   0.83333333  0.50000000  0.13119553
   0.83333333  0.83333333  0.13119553
   0.00005510  0.16672177  0.19479378