  10  10   0   0
  0.2234684E+02  0.3630000E-09  0.2566798E-09  0.2398379E-08  0.5000000E-15
  1.000000000000000E-004
  CAR 
 unknown system                          
     11.85711736    -10.11335839  301      0.73832061      1.00000000
    -10.113  0.0000E+00  0.0000E+00  0.0000E+00  0.0000E+00
    -10.040  0.0000E+00  0.0000E+00  0.0000E+00  0.0000E+00
     -9.967  0.0000E+00  0.0000E+00  0.0000E+00  0.0000E+00
     -9.894  0.0000E+00  0.0000E+00  0.0000E+00  0.0000E+00
     -9.820  0.0000E+00  0.0000E+00  0.0000E+00  0.0000E+00
     -9.747 -0.4550E-31 -0.4550E-31 -0.3332E-32 -0.3332E-32
     -9.674 -0.1502E-28 -0.1502E-28 -0.1104E-29 -0.1104E-29
     -9.601 -0.3794E-26 -0.3794E-26 -0.2789E-27 -0.2789E-27
     -9.527 -0.7306E-24 -0.7306E-24 -0.5378E-25 -0.5378E-25
     -9.454 -0.1073E-21 -0.1073E-21 -0.7910E-23 -0.7910E-23
     -9.381 -0.1200E-19 -0.1200E-19 -0.8870E-21 -0.8870E-21
     -9.308 -0.1023E-17 -0.1023E-17 -0.7582E-19 -0.7582E-19
     -9.235 -0.6428E-16 -0.6428E-16 -0.4783E-17 -0.4783E-17
     -9.161 -0.3158E-14 -0.3158E-14 -0.2361E-15 -0.2361E-15
     -9.088 -0.1178E-12 -0.1178E-12 -0.8860E-14 -0.8860E-14
     -9.015 -0.3327E-11 -0.3327E-11 -0.2525E-12 -0.2525E-12
     -8.942 -0.7105E-10 -0.7105E-10 -0.5456E-11 -0.5456E-11
     -8.868 -0.1143E-08 -0.1143E-08 -0.8920E-10 -0.8920E-10
     -8.795 -0.1381E-07 -0.1381E-07 -0.1100E-08 -0.1100E-08
     -8.722 -0.1242E-06 -0.1242E-06 -0.1020E-07 -0.1020E-07
     -8.649 -0.8237E-06 -0.8237E-06 -0.7052E-07 -0.7052E-07
     -8.575 -0.3949E-05 -0.3949E-05 -0.3597E-06 -0.3597E-06
     -8.502 -0.1317E-04 -0.1317E-04 -0.1324E-05 -0.1324E-05
     -8.429 -0.2759E-04 -0.2759E-04 -0.3345E-05 -0.3345E-05
     -8.356 -0.2152E-04 -0.2152E-04 -0.4921E-05 -0.4921E-05
     -8.282  0.6564E-04  0.6564E-04 -0.1137E-06 -0.1137E-06
     -8.209  0.2697E-03  0.2697E-03  0.1964E-04  0.1964E-04
     -8.136  0.4996E-03  0.4996E-03  0.5622E-04  0.5622E-04
     -8.063  0.5724E-03  0.5724E-03  0.9814E-04  0.9814E-04
     -7.990  0.4206E-03  0.4206E-03  0.1289E-03  0.1289E-03
     -7.916  0.1804E-03  0.1804E-03  0.1422E-03  0.1422E-03
     -7.843  0.1869E-04  0.1869E-04  0.1435E-03  0.1435E-03
     -7.770 -0.2970E-04 -0.2970E-04  0.1414E-03  0.1414E-03
     -7.697 -0.2303E-04 -0.2303E-04  0.1397E-03  0.1397E-03
     -7.623 -0.1239E-04 -0.1239E-04  0.1388E-03  0.1388E-03
     -7.550 -0.1476E-04 -0.1476E-04  0.1377E-03  0.1377E-03
     -7.477 -0.2746E-04 -0.2746E-04  0.1357E-03  0.1357E-03
     -7.404 -0.2402E-04 -0.2402E-04  0.1339E-03  0.1339E-03
     -7.330  0.5405E-04  0.5405E-04  0.1379E-03  0.1379E-03
     -7.257  0.2409E-03  0.2409E-03  0.1555E-03  0.1555E-03
     -7.184  0.4477E-03  0.4477E-03  0.1883E-03  0.1883E-03
     -7.111  0.5142E-03  0.5142E-03  0.2260E-03  0.2260E-03
     -7.037  0.4555E-03  0.4555E-03  0.2593E-03  0.2593E-03
     -6.964  0.5198E-03  0.5198E-03  0.2974E-03  0.2974E-03
     -6.891  0.8291E-03  0.8291E-03  0.3581E-03  0.3581E-03
     -6.818  0.1104E-02  0.1104E-02  0.4389E-03  0.4389E-03
     -6.745  0.9915E-03  0.9915E-03  0.5116E-03  0.5116E-03
     -6.671  0.5415E-03  0.5415E-03  0.5512E-03  0.5512E-03
     -6.598  0.1203E-03  0.1203E-03  0.5600E-03  0.5600E-03
     -6.525 -0.1602E-04 -0.1602E-04  0.5588E-03  0.5588E-03
     -6.452  0.1216E-03  0.1216E-03  0.5678E-03  0.5678E-03
     -6.378  0.3773E-03  0.3773E-03  0.5954E-03  0.5954E-03
     -6.305  0.6163E-03  0.6163E-03  0.6405E-03  0.6405E-03
     -6.232  0.8310E-03  0.8310E-03  0.7014E-03  0.7014E-03
     -6.159  0.1043E-02  0.1043E-02  0.7778E-03  0.7778E-03
     -6.085  0.1153E-02  0.1153E-02  0.8622E-03  0.8622E-03
     -6.012  0.1104E-02  0.1104E-02  0.9431E-03  0.9431E-03
     -5.939  0.1070E-02  0.1070E-02  0.1021E-02  0.1021E-02
     -5.866  0.1225E-02  0.1225E-02  0.1111E-02  0.1111E-02
     -5.792  0.1516E-02  0.1516E-02  0.1222E-02  0.1222E-02
     -5.719  0.1790E-02  0.1790E-02  0.1353E-02  0.1353E-02
     -5.646  0.1844E-02  0.1844E-02  0.1488E-02  0.1488E-02
     -5.573  0.1493E-02  0.1493E-02  0.1598E-02  0.1598E-02
     -5.500  0.8248E-03  0.8248E-03  0.1658E-02  0.1658E-02
     -5.426  0.1997E-03  0.1997E-03  0.1673E-02  0.1673E-02
     -5.353 -0.9399E-04 -0.9399E-04  0.1666E-02  0.1666E-02
     -5.280 -0.1413E-04 -0.1413E-04  0.1665E-02  0.1665E-02
     -5.207  0.3157E-03  0.3157E-03  0.1688E-02  0.1688E-02
     -5.133  0.7216E-03  0.7216E-03  0.1741E-02  0.1741E-02
     -5.060  0.1272E-02  0.1272E-02  0.1834E-02  0.1834E-02
     -4.987  0.2457E-02  0.2457E-02  0.2014E-02  0.2014E-02
     -4.914  0.4453E-02  0.4453E-02  0.2340E-02  0.2340E-02
     -4.840  0.6182E-02  0.6182E-02  0.2793E-02  0.2793E-02
     -4.767  0.6083E-02  0.6083E-02  0.3238E-02  0.3238E-02
     -4.694  0.4037E-02  0.4037E-02  0.3534E-02  0.3534E-02
     -4.621  0.1562E-02  0.1562E-02  0.3648E-02  0.3648E-02
     -4.548  0.2091E-04  0.2091E-04  0.3650E-02  0.3650E-02
     -4.474 -0.4951E-03 -0.4951E-03  0.3614E-02  0.3614E-02
     -4.401 -0.4803E-03 -0.4803E-03  0.3578E-02  0.3578E-02
     -4.328  0.1635E-04  0.1635E-04  0.3580E-02  0.3580E-02
     -4.255  0.1407E-02  0.1407E-02  0.3683E-02  0.3683E-02
     -4.181  0.3606E-02  0.3606E-02  0.3947E-02  0.3947E-02
     -4.108  0.5398E-02  0.5398E-02  0.4342E-02  0.4342E-02
     -4.035  0.5415E-02  0.5415E-02  0.4739E-02  0.4739E-02
     -3.962  0.3774E-02  0.3774E-02  0.5015E-02  0.5015E-02
     -3.888  0.2046E-02  0.2046E-02  0.5165E-02  0.5165E-02
     -3.815  0.1503E-02  0.1503E-02  0.5275E-02  0.5275E-02
     -3.742  0.2059E-02  0.2059E-02  0.5426E-02  0.5426E-02
     -3.669  0.3023E-02  0.3023E-02  0.5647E-02  0.5647E-02
     -3.595  0.4141E-02  0.4141E-02  0.5950E-02  0.5950E-02
     -3.522  0.5437E-02  0.5437E-02  0.6348E-02  0.6348E-02
     -3.449  0.6574E-02  0.6574E-02  0.6830E-02  0.6830E-02
     -3.376  0.7184E-02  0.7184E-02  0.7356E-02  0.7356E-02
     -3.303  0.7567E-02  0.7567E-02  0.7910E-02  0.7910E-02
     -3.229  0.8347E-02  0.8347E-02  0.8522E-02  0.8522E-02
     -3.156  0.9585E-02  0.9585E-02  0.9223E-02  0.9223E-02
     -3.083  0.1083E-01  0.1083E-01  0.1002E-01  0.1002E-01
     -3.010  0.1169E-01  0.1169E-01  0.1087E-01  0.1087E-01
     -2.936  0.1175E-01  0.1175E-01  0.1173E-01  0.1173E-01
     -2.863  0.1070E-01  0.1070E-01  0.1252E-01  0.1252E-01
     -2.790  0.9033E-02  0.9033E-02  0.1318E-01  0.1318E-01
     -2.717  0.8148E-02  0.8148E-02  0.1377E-01  0.1377E-01
     -2.643  0.8881E-02  0.8881E-02  0.1442E-01  0.1442E-01
     -2.570  0.1042E-01  0.1042E-01  0.1519E-01  0.1519E-01
     -2.497  0.1154E-01  0.1154E-01  0.1603E-01  0.1603E-01
     -2.424  0.1238E-01  0.1238E-01  0.1694E-01  0.1694E-01
     -2.350  0.1363E-01  0.1363E-01  0.1794E-01  0.1794E-01
     -2.277  0.1472E-01  0.1472E-01  0.1902E-01  0.1902E-01
     -2.204  0.1488E-01  0.1488E-01  0.2011E-01  0.2011E-01
     -2.131  0.1516E-01  0.1516E-01  0.2122E-01  0.2122E-01
     -2.058  0.1729E-01  0.1729E-01  0.2248E-01  0.2248E-01
     -1.984  0.2042E-01  0.2042E-01  0.2398E-01  0.2398E-01
     -1.911  0.2164E-01  0.2164E-01  0.2556E-01  0.2556E-01
     -1.838  0.1986E-01  0.1986E-01  0.2702E-01  0.2702E-01
     -1.765  0.1708E-01  0.1708E-01  0.2827E-01  0.2827E-01
     -1.691  0.1550E-01  0.1550E-01  0.2940E-01  0.2940E-01
     -1.618  0.1493E-01  0.1493E-01  0.3050E-01  0.3050E-01
     -1.545  0.1380E-01  0.1380E-01  0.3151E-01  0.3151E-01
     -1.472  0.1169E-01  0.1169E-01  0.3236E-01  0.3236E-01
     -1.398  0.1025E-01  0.1025E-01  0.3312E-01  0.3312E-01
     -1.325  0.1144E-01  0.1144E-01  0.3395E-01  0.3395E-01
     -1.252  0.1558E-01  0.1558E-01  0.3509E-01  0.3509E-01
     -1.179  0.2120E-01  0.2120E-01  0.3665E-01  0.3665E-01
     -1.105  0.2564E-01  0.2564E-01  0.3852E-01  0.3852E-01
     -1.032  0.2639E-01  0.2639E-01  0.4046E-01  0.4046E-01
     -0.959  0.2345E-01  0.2345E-01  0.4217E-01  0.4217E-01
     -0.886  0.2009E-01  0.2009E-01  0.4365E-01  0.4365E-01
     -0.813  0.1951E-01  0.1951E-01  0.4508E-01  0.4508E-01
     -0.739  0.2138E-01  0.2138E-01  0.4664E-01  0.4664E-01
     -0.666  0.2305E-01  0.2305E-01  0.4833E-01  0.4833E-01
     -0.593  0.2285E-01  0.2285E-01  0.5000E-01  0.5000E-01
     -0.520  0.2076E-01  0.2076E-01  0.5152E-01  0.5152E-01
     -0.446  0.1719E-01  0.1719E-01  0.5278E-01  0.5278E-01
     -0.373  0.1283E-01  0.1283E-01  0.5372E-01  0.5372E-01
     -0.300  0.8721E-02  0.8721E-02  0.5436E-01  0.5436E-01
     -0.227  0.5586E-02  0.5586E-02  0.5477E-01  0.5477E-01
     -0.153  0.3358E-02  0.3358E-02  0.5502E-01  0.5502E-01
     -0.080  0.1679E-02  0.1679E-02  0.5514E-01  0.5514E-01
     -0.007  0.4811E-03  0.4811E-03  0.5517E-01  0.5517E-01
      0.066 -0.1470E-03 -0.1470E-03  0.5516E-01  0.5516E-01
      0.140 -0.3171E-03 -0.3171E-03  0.5514E-01  0.5514E-01
      0.213 -0.2232E-03 -0.2232E-03  0.5512E-01  0.5512E-01
      0.286  0.1423E-03  0.1423E-03  0.5513E-01  0.5513E-01
      0.359  0.8772E-03  0.8772E-03  0.5520E-01  0.5520E-01
      0.432  0.1834E-02  0.1834E-02  0.5533E-01  0.5533E-01
      0.506  0.2676E-02  0.2676E-02  0.5553E-01  0.5553E-01
      0.579  0.3223E-02  0.3223E-02  0.5576E-01  0.5576E-01
      0.652  0.3365E-02  0.3365E-02  0.5601E-01  0.5601E-01
      0.725  0.2864E-02  0.2864E-02  0.5622E-01  0.5622E-01
      0.799  0.1785E-02  0.1785E-02  0.5635E-01  0.5635E-01
      0.872  0.8079E-03  0.8079E-03  0.5641E-01  0.5641E-01
      0.945  0.5437E-03  0.5437E-03  0.5645E-01  0.5645E-01
      1.018  0.8232E-03  0.8232E-03  0.5651E-01  0.5651E-01
      1.092  0.9909E-03  0.9909E-03  0.5658E-01  0.5658E-01
      1.165  0.7450E-03  0.7450E-03  0.5664E-01  0.5664E-01
      1.238  0.4165E-03  0.4165E-03  0.5667E-01  0.5667E-01
      1.311  0.4355E-03  0.4355E-03  0.5670E-01  0.5670E-01
      1.385  0.7598E-03  0.7598E-03  0.5676E-01  0.5676E-01
      1.458  0.1021E-02  0.1021E-02  0.5683E-01  0.5683E-01
      1.531  0.1157E-02  0.1157E-02  0.5692E-01  0.5692E-01
      1.604  0.1498E-02  0.1498E-02  0.5703E-01  0.5703E-01
      1.677  0.2038E-02  0.2038E-02  0.5717E-01  0.5717E-01
      1.751  0.2161E-02  0.2161E-02  0.5733E-01  0.5733E-01
      1.824  0.1522E-02  0.1522E-02  0.5744E-01  0.5744E-01
      1.897  0.7124E-03  0.7124E-03  0.5750E-01  0.5750E-01
      1.970  0.6110E-03  0.6110E-03  0.5754E-01  0.5754E-01
      2.044  0.1326E-02  0.1326E-02  0.5764E-01  0.5764E-01
      2.117  0.2058E-02  0.2058E-02  0.5779E-01  0.5779E-01
      2.190  0.2051E-02  0.2051E-02  0.5794E-01  0.5794E-01
      2.263  0.1498E-02  0.1498E-02  0.5805E-01  0.5805E-01
      2.337  0.1165E-02  0.1165E-02  0.5813E-01  0.5813E-01
      2.410  0.1322E-02  0.1322E-02  0.5823E-01  0.5823E-01
      2.483  0.1651E-02  0.1651E-02  0.5835E-01  0.5835E-01
      2.556  0.1981E-02  0.1981E-02  0.5850E-01  0.5850E-01
      2.630  0.2359E-02  0.2359E-02  0.5867E-01  0.5867E-01
      2.703  0.2602E-02  0.2602E-02  0.5886E-01  0.5886E-01
      2.776  0.2483E-02  0.2483E-02  0.5904E-01  0.5904E-01
      2.849  0.2165E-02  0.2165E-02  0.5920E-01  0.5920E-01
      2.922  0.1974E-02  0.1974E-02  0.5935E-01  0.5935E-01
      2.996  0.1912E-02  0.1912E-02  0.5949E-01  0.5949E-01
      3.069  0.1691E-02  0.1691E-02  0.5961E-01  0.5961E-01
      3.142  0.1154E-02  0.1154E-02  0.5969E-01  0.5969E-01
      3.215  0.5087E-03  0.5087E-03  0.5973E-01  0.5973E-01
      3.289  0.6947E-04  0.6947E-04  0.5974E-01  0.5974E-01
      3.362 -0.7992E-04 -0.7992E-04  0.5973E-01  0.5973E-01
      3.435 -0.7234E-04 -0.7234E-04  0.5972E-01  0.5972E-01
      3.508 -0.4924E-04 -0.4924E-04  0.5972E-01  0.5972E-01
      3.582 -0.7582E-04 -0.7582E-04  0.5972E-01  0.5972E-01
      3.655 -0.1536E-03 -0.1536E-03  0.5970E-01  0.5970E-01
      3.728 -0.1677E-03 -0.1677E-03  0.5969E-01  0.5969E-01
      3.801  0.1875E-03  0.1875E-03  0.5971E-01  0.5971E-01
      3.875  0.1217E-02  0.1217E-02  0.5979E-01  0.5979E-01
      3.948  0.2727E-02  0.2727E-02  0.5999E-01  0.5999E-01
      4.021  0.3898E-02  0.3898E-02  0.6028E-01  0.6028E-01
      4.094  0.4055E-02  0.4055E-02  0.6058E-01  0.6058E-01
      4.167  0.3461E-02  0.3461E-02  0.6083E-01  0.6083E-01
      4.241  0.2904E-02  0.2904E-02  0.6104E-01  0.6104E-01
      4.314  0.2671E-02  0.2672E-02  0.6124E-01  0.6124E-01
      4.387  0.2435E-02  0.2435E-02  0.6142E-01  0.6142E-01
      4.460  0.1955E-02  0.1955E-02  0.6156E-01  0.6156E-01
      4.534  0.1380E-02  0.1380E-02  0.6166E-01  0.6166E-01
      4.607  0.9120E-03  0.9120E-03  0.6173E-01  0.6173E-01
      4.680  0.5535E-03  0.5535E-03  0.6177E-01  0.6177E-01
      4.753  0.2882E-03  0.2882E-03  0.6179E-01  0.6179E-01
      4.827  0.2804E-03  0.2804E-03  0.6181E-01  0.6181E-01
      4.900  0.6997E-03  0.6997E-03  0.6186E-01  0.6186E-01
      4.973  0.1393E-02  0.1393E-02  0.6196E-01  0.6196E-01
      5.046  0.1892E-02  0.1892E-02  0.6210E-01  0.6210E-01
      5.120  0.1811E-02  0.1811E-02  0.6223E-01  0.6223E-01
      5.193  0.1172E-02  0.1172E-02  0.6232E-01  0.6232E-01
      5.266  0.3694E-03  0.3694E-03  0.6235E-01  0.6235E-01
      5.339 -0.1044E-03 -0.1044E-03  0.6234E-01  0.6234E-01
      5.412  0.1783E-03  0.1783E-03  0.6235E-01  0.6235E-01
      5.486  0.1434E-02  0.1434E-02  0.6246E-01  0.6246E-01
      5.559  0.3266E-02  0.3266E-02  0.6270E-01  0.6270E-01
      5.632  0.4543E-02  0.4543E-02  0.6303E-01  0.6303E-01
      5.705  0.4321E-02  0.4321E-02  0.6335E-01  0.6335E-01
      5.779  0.2942E-02  0.2942E-02  0.6356E-01  0.6356E-01
      5.852  0.1707E-02  0.1707E-02  0.6369E-01  0.6369E-01
      5.925  0.1491E-02  0.1491E-02  0.6380E-01  0.6380E-01
      5.998  0.2107E-02  0.2107E-02  0.6395E-01  0.6395E-01
      6.072  0.2829E-02  0.2829E-02  0.6416E-01  0.6416E-01
      6.145  0.3077E-02  0.3077E-02  0.6438E-01  0.6438E-01
      6.218  0.2778E-02  0.2778E-02  0.6459E-01  0.6459E-01
      6.291  0.2356E-02  0.2356E-02  0.6476E-01  0.6476E-01
      6.364  0.2339E-02  0.2339E-02  0.6493E-01  0.6493E-01
      6.438  0.2832E-02  0.2832E-02  0.6514E-01  0.6514E-01
      6.511  0.3349E-02  0.3349E-02  0.6538E-01  0.6538E-01
      6.584  0.3392E-02  0.3392E-02  0.6563E-01  0.6563E-01
      6.657  0.3059E-02  0.3059E-02  0.6586E-01  0.6586E-01
      6.731  0.2681E-02  0.2681E-02  0.6605E-01  0.6605E-01
      6.804  0.2181E-02  0.2181E-02  0.6621E-01  0.6621E-01
      6.877  0.1493E-02  0.1493E-02  0.6632E-01  0.6632E-01
      6.950  0.1243E-02  0.1243E-02  0.6641E-01  0.6641E-01
      7.024  0.2103E-02  0.2103E-02  0.6657E-01  0.6657E-01
      7.097  0.3564E-02  0.3564E-02  0.6683E-01  0.6683E-01
      7.170  0.4206E-02  0.4206E-02  0.6714E-01  0.6714E-01
      7.243  0.3386E-02  0.3386E-02  0.6738E-01  0.6738E-01
      7.317  0.1968E-02  0.1968E-02  0.6753E-01  0.6753E-01
      7.390  0.1066E-02  0.1066E-02  0.6761E-01  0.6761E-01
      7.463  0.7817E-03  0.7817E-03  0.6766E-01  0.6766E-01
      7.536  0.6766E-03  0.6766E-03  0.6771E-01  0.6771E-01
      7.609  0.8421E-03  0.8421E-03  0.6777E-01  0.6777E-01
      7.683  0.1777E-02  0.1777E-02  0.6790E-01  0.6790E-01
      7.756  0.3456E-02  0.3456E-02  0.6816E-01  0.6816E-01
      7.829  0.5132E-02  0.5132E-02  0.6853E-01  0.6853E-01
      7.902  0.6084E-02  0.6084E-02  0.6898E-01  0.6898E-01
      7.976  0.6108E-02  0.6108E-02  0.6943E-01  0.6943E-01
      8.049  0.5307E-02  0.5307E-02  0.6981E-01  0.6981E-01
      8.122  0.4024E-02  0.4024E-02  0.7011E-01  0.7011E-01
      8.195  0.2995E-02  0.2995E-02  0.7033E-01  0.7033E-01
      8.269  0.2811E-02  0.2811E-02  0.7053E-01  0.7053E-01
      8.342  0.3133E-02  0.3133E-02  0.7076E-01  0.7076E-01
      8.415  0.3075E-02  0.3075E-02  0.7099E-01  0.7099E-01
      8.488  0.2315E-02  0.2315E-02  0.7116E-01  0.7116E-01
      8.562  0.1346E-02  0.1346E-02  0.7126E-01  0.7126E-01
      8.635  0.7960E-03  0.7960E-03  0.7132E-01  0.7132E-01
      8.708  0.9108E-03  0.9108E-03  0.7138E-01  0.7138E-01
      8.781  0.1566E-02  0.1566E-02  0.7150E-01  0.7150E-01
      8.854  0.2323E-02  0.2323E-02  0.7167E-01  0.7167E-01
      8.928  0.2605E-02  0.2605E-02  0.7186E-01  0.7186E-01
      9.001  0.2281E-02  0.2281E-02  0.7202E-01  0.7202E-01
      9.074  0.1932E-02  0.1932E-02  0.7217E-01  0.7217E-01
      9.147  0.2144E-02  0.2144E-02  0.7232E-01  0.7232E-01
      9.221  0.2803E-02  0.2803E-02  0.7253E-01  0.7253E-01
      9.294  0.3385E-02  0.3385E-02  0.7278E-01  0.7278E-01
      9.367  0.3646E-02  0.3646E-02  0.7304E-01  0.7304E-01
      9.440  0.3710E-02  0.3710E-02  0.7331E-01  0.7331E-01
      9.514  0.3731E-02  0.3731E-02  0.7359E-01  0.7359E-01
      9.587  0.3807E-02  0.3807E-02  0.7387E-01  0.7387E-01
      9.660  0.3962E-02  0.3962E-02  0.7416E-01  0.7416E-01
      9.733  0.3972E-02  0.3972E-02  0.7445E-01  0.7445E-01
      9.807  0.3499E-02  0.3499E-02  0.7470E-01  0.7470E-01
      9.880  0.2508E-02  0.2508E-02  0.7489E-01  0.7489E-01
      9.953  0.1349E-02  0.1349E-02  0.7499E-01  0.7499E-01
     10.026  0.4442E-03  0.4442E-03  0.7502E-01  0.7502E-01
     10.099 -0.1501E-04 -0.1500E-04  0.7502E-01  0.7502E-01
     10.173 -0.1217E-03 -0.1217E-03  0.7501E-01  0.7501E-01
     10.246 -0.8205E-04 -0.8205E-04  0.7500E-01  0.7500E-01
     10.319 -0.3282E-04 -0.3282E-04  0.7500E-01  0.7500E-01
     10.392 -0.9040E-05 -0.9040E-05  0.7500E-01  0.7500E-01
     10.466 -0.1797E-05 -0.1797E-05  0.7500E-01  0.7500E-01
     10.539 -0.2632E-06 -0.2632E-06  0.7500E-01  0.7500E-01
     10.612 -0.2871E-07 -0.2871E-07  0.7500E-01  0.7500E-01
     10.685 -0.2348E-08 -0.2348E-08  0.7500E-01  0.7500E-01
     10.759 -0.1447E-09 -0.1447E-09  0.7500E-01  0.7500E-01
     10.832 -0.6738E-11 -0.6738E-11  0.7500E-01  0.7500E-01
     10.905 -0.2376E-12 -0.2376E-12  0.7500E-01  0.7500E-01
     10.978 -0.6355E-14 -0.6355E-14  0.7500E-01  0.7500E-01
     11.052 -0.1297E-15 -0.1297E-15  0.7500E-01  0.7500E-01
     11.125 -0.1684E-17 -0.1684E-17  0.7500E-01  0.7500E-01
     11.198  0.0000E+00  0.0000E+00  0.7500E-01  0.7500E-01
     11.271  0.0000E+00  0.0000E+00  0.7500E-01  0.7500E-01
     11.344  0.0000E+00  0.0000E+00  0.7500E-01  0.7500E-01
     11.418  0.0000E+00  0.0000E+00  0.7500E-01  0.7500E-01
     11.491  0.0000E+00  0.0000E+00  0.7500E-01  0.7500E-01
     11.564  0.0000E+00  0.0000E+00  0.7500E-01  0.7500E-01
     11.637  0.0000E+00  0.0000E+00  0.7500E-01  0.7500E-01
     11.711  0.0000E+00  0.0000E+00  0.7500E-01  0.7500E-01
     11.784  0.0000E+00  0.0000E+00  0.7500E-01  0.7500E-01
     11.857  0.0000E+00  0.0000E+00  0.7500E-01  0.7500E-01
