       N       E                     dE             d eps       ncg     rms          rms(c)
DAV:   1     0.771802485921E+03    0.77180E+03   -0.33252E+04   960   0.168E+03
DAV:   2     0.583568006800E+02   -0.71345E+03   -0.68541E+03   960   0.377E+02
DAV:   3    -0.309577110063E+02   -0.89315E+02   -0.83220E+02   988   0.182E+02
DAV:   4    -0.346684698425E+02   -0.37108E+01   -0.36792E+01  1112   0.506E+01
DAV:   5    -0.347517504178E+02   -0.83281E-01   -0.83217E-01  1160   0.625E+00    0.270E+01
DAV:   6    -0.295491169767E+02    0.52026E+01   -0.90857E+01  1088   0.124E+02    0.134E+01
DAV:   7    -0.274538976913E+02    0.20952E+01   -0.26915E+01  1160   0.110E+02    0.887E+00
DAV:   8    -0.270416155496E+02    0.41228E+00   -0.12599E+01  1344   0.870E+01    0.748E+00
DAV:   9    -0.265652691345E+02    0.47635E+00   -0.52993E+00  1640   0.507E+01    0.638E+00
DAV:  10    -0.270953171645E+02   -0.53005E+00   -0.17089E+00  1248   0.301E+01    0.527E+00
DAV:  11    -0.287272548650E+02   -0.16319E+01   -0.12414E+00  1276   0.255E+01    0.445E+00
DAV:  12    -0.296423276340E+02   -0.91507E+00   -0.68881E-01  1156   0.225E+01    0.350E+00
DAV:  13    -0.316447137862E+02   -0.20024E+01   -0.12561E+00  1304   0.268E+01    0.203E+00
DAV:  14    -0.335877926912E+02   -0.19431E+01   -0.21215E+00  1220   0.209E+01    0.107E+00
DAV:  15    -0.341498426487E+02   -0.56205E+00   -0.67280E-01  1156   0.877E+00    0.743E-01
DAV:  16    -0.343699937049E+02   -0.22015E+00   -0.16944E-01  1176   0.560E+00    0.534E-01
DAV:  17    -0.345455000807E+02   -0.17551E+00   -0.14222E-01  1196   0.490E+00    0.417E-01
DAV:  18    -0.346052252452E+02   -0.59725E-01   -0.38277E-02  1144   0.252E+00    0.256E-01
DAV:  19    -0.347008858673E+02   -0.95661E-01   -0.26350E-02  1160   0.196E+00    0.205E-01
DAV:  20    -0.347405771657E+02   -0.39691E-01   -0.68649E-03  1164   0.155E+00    0.164E-01
DAV:  21    -0.347763870259E+02   -0.35810E-01   -0.38662E-03  1148   0.886E-01    0.120E-01
DAV:  22    -0.348289942246E+02   -0.52607E-01   -0.47997E-03  1004   0.440E-01    0.910E-02
DAV:  23    -0.348774107637E+02   -0.48417E-01   -0.20088E-03   988   0.502E-01    0.637E-02
DAV:  24    -0.349086652906E+02   -0.31255E-01   -0.88655E-04   916   0.605E-01    0.464E-02
DAV:  25    -0.349237347976E+02   -0.15070E-01   -0.43368E-04   808   0.319E-01    0.273E-02
DAV:  26    -0.349288472273E+02   -0.51124E-02   -0.34457E-04   796   0.141E-01    0.162E-02
DAV:  27    -0.349292753487E+02   -0.42812E-03   -0.65626E-05   708   0.105E-01    0.120E-02
DAV:  28    -0.349294194266E+02   -0.14408E-03   -0.46381E-05   692   0.953E-02
   1 F= -.38196075E+02 E0= -.38199666E+02  d E =-.381961E+02  mag=     0.0003
       N       E                     dE             d eps       ncg     rms          rms(c)
DAV:   1    -0.349324905661E+02   -0.32152E-02   -0.10391E+01  1020   0.131E+01    0.557E-01
DAV:   2    -0.349478389444E+02   -0.15348E-01   -0.21371E-01  1368   0.552E+00    0.434E-01
DAV:   3    -0.349461708021E+02    0.16681E-02   -0.23964E-02  1152   0.562E+00    0.300E-01
DAV:   4    -0.349453902202E+02    0.78058E-03   -0.11189E-02  1112   0.358E+00    0.179E-01
DAV:   5    -0.349453536024E+02    0.36618E-04   -0.96257E-03  1632   0.296E+00    0.828E-02
DAV:   6    -0.349451591385E+02    0.19446E-03   -0.46041E-03  1016   0.191E+00    0.433E-02
DAV:   7    -0.349451691714E+02   -0.10033E-04   -0.87366E-04   860   0.691E-01
   2 F= -.38226083E+02 E0= -.38230477E+02  d E =-.300088E-01  mag=     0.0002
       N       E                     dE             d eps       ncg     rms          rms(c)
DAV:   1    -0.349488960277E+02   -0.37369E-02   -0.20693E-01  1008   0.187E+00    0.715E-02
DAV:   2    -0.349492017943E+02   -0.30577E-03   -0.39831E-03  1328   0.629E-01    0.581E-02
DAV:   3    -0.349491800177E+02    0.21777E-04   -0.38324E-04   760   0.621E-01
   3 F= -.38226703E+02 E0= -.38230967E+02  d E =-.306285E-01  mag=     0.0002
       N       E                     dE             d eps       ncg     rms          rms(c)
DAV:   1    -0.349651003861E+02   -0.15899E-01   -0.10618E+01  1044   0.133E+01    0.324E-01
DAV:   2    -0.349844174799E+02   -0.19317E-01   -0.21109E-01  1336   0.489E+00    0.347E-01
DAV:   3    -0.349831996196E+02    0.12179E-02   -0.12358E-02  1088   0.315E+00    0.190E-01
DAV:   4    -0.349830393784E+02    0.16024E-03   -0.29393E-03  1100   0.106E+00    0.153E-01
DAV:   5    -0.349828359752E+02    0.20340E-03   -0.21850E-03  1136   0.137E+00    0.913E-02
DAV:   6    -0.349827788757E+02    0.57100E-04   -0.22741E-03   984   0.159E+00    0.446E-02
DAV:   7    -0.349827411414E+02    0.37734E-04   -0.61276E-04   636   0.783E-01
   4 F= -.38263208E+02 E0= -.38267976E+02  d E =-.365047E-01  mag=     0.0001
       N       E                     dE             d eps       ncg     rms          rms(c)
DAV:   1    -0.348948971979E+02    0.87882E-01   -0.65430E+01  1060   0.348E+01    0.835E-01
DAV:   2    -0.350244710618E+02   -0.12957E+00   -0.14052E+00  1360   0.132E+01    0.893E-01
DAV:   3    -0.350149561357E+02    0.95149E-02   -0.69561E-02  1084   0.880E+00    0.471E-01
DAV:   4    -0.350142904742E+02    0.66566E-03   -0.20750E-02  1164   0.254E+00    0.383E-01
DAV:   5    -0.350132550119E+02    0.10355E-02   -0.16905E-02  1212   0.394E+00    0.251E-01
DAV:   6    -0.350124673260E+02    0.78769E-03   -0.15982E-02  1232   0.411E+00    0.106E-01
DAV:   7    -0.350124636747E+02    0.36513E-05   -0.45181E-03  1560   0.167E+00    0.600E-02
DAV:   8    -0.350124373332E+02    0.26341E-04   -0.54266E-04   772   0.590E-01
   5 F= -.38301434E+02 E0= -.38306990E+02  d E =-.747304E-01  mag=     0.0001
       N       E                     dE             d eps       ncg     rms          rms(c)
DAV:   1    -0.350243624821E+02   -0.11899E-01   -0.42285E+00   992   0.848E+00    0.246E-01
DAV:   2    -0.350318423240E+02   -0.74798E-02   -0.82925E-02  1308   0.218E+00    0.200E-01
DAV:   3    -0.350316591813E+02    0.18314E-03   -0.45088E-03  1140   0.175E+00    0.154E-01
DAV:   4    -0.350315210556E+02    0.13813E-03   -0.25579E-03   984   0.175E+00    0.101E-01
DAV:   5    -0.350314273036E+02    0.93752E-04   -0.22746E-03   732   0.152E+00    0.477E-02
DAV:   6    -0.350313696039E+02    0.57700E-04   -0.87522E-04   632   0.921E-01
   6 F= -.38322404E+02 E0= -.38327641E+02  d E =-.209708E-01  mag=     0.0000
       N       E                     dE             d eps       ncg     rms          rms(c)
DAV:   1    -0.350221686192E+02    0.92587E-02   -0.10847E+01   992   0.137E+01    0.410E-01
DAV:   2    -0.350417379192E+02   -0.19569E-01   -0.21830E-01  1304   0.341E+00    0.337E-01
DAV:   3    -0.350410065530E+02    0.73137E-03   -0.98256E-03  1176   0.242E+00    0.246E-01
DAV:   4    -0.350405522984E+02    0.45425E-03   -0.36145E-03  1108   0.232E+00    0.150E-01
DAV:   5    -0.350404258603E+02    0.12644E-03   -0.42634E-03  1252   0.229E+00    0.681E-02
DAV:   6    -0.350403125867E+02    0.11327E-03   -0.29695E-03   696   0.167E+00    0.467E-02
DAV:   7    -0.350402788336E+02    0.33753E-04   -0.52332E-04   608   0.639E-01
   7 F= -.38335593E+02 E0= -.38340264E+02  d E =-.341590E-01  mag=     0.0000
       N       E                     dE             d eps       ncg     rms          rms(c)
DAV:   1    -0.350451486427E+02   -0.48361E-02   -0.32199E-01   992   0.234E+00    0.722E-02
DAV:   2    -0.350456691067E+02   -0.52046E-03   -0.57027E-03  1316   0.576E-01    0.498E-02
DAV:   3    -0.350456681464E+02    0.96028E-06   -0.24033E-04   656   0.456E-01
   8 F= -.38341960E+02 E0= -.38346513E+02  d E =-.636795E-02  mag=     0.0000
       N       E                     dE             d eps       ncg     rms          rms(c)
DAV:   1    -0.350548566195E+02   -0.91875E-02   -0.28880E+00   992   0.704E+00    0.216E-01
DAV:   2    -0.350595402104E+02   -0.46836E-02   -0.52614E-02  1296   0.182E+00    0.167E-01
DAV:   3    -0.350593945013E+02    0.14571E-03   -0.29631E-03  1132   0.150E+00    0.126E-01
DAV:   4    -0.350593264123E+02    0.68089E-04   -0.27334E-03   948   0.173E+00    0.871E-02
DAV:   5    -0.350592538394E+02    0.72573E-04   -0.16599E-03   676   0.129E+00
   9 F= -.38358498E+02 E0= -.38362796E+02  d E =-.229053E-01  mag=     0.0000
       N       E                     dE             d eps       ncg     rms          rms(c)
DAV:   1    -0.350571209920E+02    0.22054E-02   -0.11543E+01   992   0.141E+01    0.405E-01
DAV:   2    -0.350767969302E+02   -0.19676E-01   -0.21541E-01  1320   0.341E+00    0.318E-01
DAV:   3    -0.350760234334E+02    0.77350E-03   -0.67530E-03  1136   0.195E+00    0.226E-01
DAV:   4    -0.350757411761E+02    0.28226E-03   -0.36751E-03  1080   0.211E+00    0.155E-01
DAV:   5    -0.350756240912E+02    0.11708E-03   -0.39732E-03  1288   0.186E+00    0.660E-02
DAV:   6    -0.350755632528E+02    0.60838E-04   -0.24622E-03   660   0.164E+00    0.412E-02
DAV:   7    -0.350755222633E+02    0.40990E-04   -0.49304E-04   648   0.686E-01
  10 F= -.38380750E+02 E0= -.38384393E+02  d E =-.451577E-01  mag=     0.0000
       N       E                     dE             d eps       ncg     rms          rms(c)
DAV:   1    -0.349855176516E+02    0.90046E-01   -0.46487E+01   992   0.292E+01    0.800E-01
DAV:   2    -0.350695948774E+02   -0.84077E-01   -0.91229E-01  1304   0.742E+00    0.670E-01
DAV:   3    -0.350664766385E+02    0.31182E-02   -0.39148E-02  1136   0.547E+00    0.475E-01
DAV:   4    -0.350652042067E+02    0.12724E-02   -0.25877E-02  1048   0.519E+00    0.352E-01
DAV:   5    -0.350646080873E+02    0.59612E-03   -0.31427E-02  1584   0.517E+00    0.195E-01
DAV:   6    -0.350636120399E+02    0.99605E-03   -0.12683E-02  1552   0.389E+00    0.533E-02
DAV:   7    -0.350636774617E+02   -0.65422E-04   -0.17342E-03  1296   0.796E-01
  11 F= -.38381391E+02 E0= -.38383735E+02  d E =-.457988E-01  mag=     0.0000
       N       E                     dE             d eps       ncg     rms          rms(c)
DAV:   1    -0.350579196354E+02    0.56924E-02   -0.12161E+01   992   0.145E+01    0.396E-01
DAV:   2    -0.350789176557E+02   -0.20998E-01   -0.22837E-01  1296   0.394E+00    0.361E-01
DAV:   3    -0.350780819481E+02    0.83571E-03   -0.12696E-02  1088   0.307E+00    0.254E-01
DAV:   4    -0.350776430075E+02    0.43894E-03   -0.66657E-03  1216   0.248E+00    0.174E-01
DAV:   5    -0.350774121103E+02    0.23090E-03   -0.81444E-03  1232   0.262E+00    0.840E-02
DAV:   6    -0.350771732254E+02    0.23888E-03   -0.31046E-03   736   0.190E+00    0.375E-02
DAV:   7    -0.350772122562E+02   -0.39031E-04   -0.83256E-04   928   0.545E-01
  12 F= -.38388385E+02 E0= -.38391398E+02  d E =-.527926E-01  mag=     0.0000
       N       E                     dE             d eps       ncg     rms          rms(c)
DAV:   1    -0.350762536626E+02    0.91956E-03   -0.16681E-01  1000   0.168E+00    0.511E-02
DAV:   2    -0.350764988916E+02   -0.24523E-03   -0.29537E-03  1264   0.442E-01    0.438E-02
DAV:   3    -0.350764756675E+02    0.23224E-04   -0.89184E-05   640   0.305E-01
  13 F= -.38388401E+02 E0= -.38391319E+02  d E =-.528083E-01  mag=     0.0000
       N       E                     dE             d eps       ncg     rms          rms(c)
DAV:   1    -0.350768311869E+02   -0.33230E-03   -0.50581E-02   988   0.963E-01    0.225E-02
DAV:   2    -0.350768988534E+02   -0.67666E-04   -0.71585E-04   916   0.334E-01
  14 F= -.38388406E+02 E0= -.38391370E+02  d E =-.528137E-01  mag=     0.0000
       N       E                     dE             d eps       ncg     rms          rms(c)
DAV:   1    -0.350766877949E+02    0.14339E-03   -0.12665E-02  1268   0.577E-01    0.120E-02
DAV:   2    -0.350766996383E+02   -0.11843E-04   -0.14620E-04   600   0.340E-01
  15 F= -.38388416E+02 E0= -.38391349E+02  d E =-.528233E-01  mag=     0.0000
       N       E                     dE             d eps       ncg     rms          rms(c)
DAV:   1    -0.350814046270E+02   -0.47168E-02   -0.25846E-01   992   0.209E+00    0.650E-02
DAV:   2    -0.350818275146E+02   -0.42289E-03   -0.47395E-03  1248   0.519E-01    0.484E-02
DAV:   3    -0.350818126298E+02    0.14885E-04   -0.13063E-04   636   0.337E-01
  16 F= -.38393196E+02 E0= -.38396088E+02  d E =-.477994E-02  mag=     0.0000
       N       E                     dE             d eps       ncg     rms          rms(c)
DAV:   1    -0.350918786953E+02   -0.10051E-01   -0.23311E+00   992   0.624E+00    0.200E-01
DAV:   2    -0.350956823083E+02   -0.38036E-02   -0.42607E-02  1280   0.172E+00    0.152E-01
DAV:   3    -0.350955959471E+02    0.86361E-04   -0.23178E-03  1104   0.143E+00    0.111E-01
DAV:   4    -0.350955406043E+02    0.55343E-04   -0.21177E-03   912   0.164E+00    0.759E-02
DAV:   5    -0.350954991095E+02    0.41495E-04   -0.16698E-03   680   0.127E+00
  17 F= -.38405797E+02 E0= -.38408596E+02  d E =-.173809E-01  mag=     0.0000
       N       E                     dE             d eps       ncg     rms          rms(c)
DAV:   1    -0.350994957125E+02   -0.39551E-02   -0.93258E+00   992   0.125E+01    0.386E-01
DAV:   2    -0.351159779412E+02   -0.16482E-01   -0.18131E-01  1280   0.389E+00    0.316E-01
DAV:   3    -0.351154372687E+02    0.54067E-03   -0.80722E-03  1096   0.291E+00    0.221E-01
DAV:   4    -0.351150813947E+02    0.35587E-03   -0.24698E-03  1152   0.182E+00    0.126E-01
DAV:   5    -0.351150666552E+02    0.14740E-04   -0.16438E-03  1184   0.961E-01
  18 F= -.38422773E+02 E0= -.38425278E+02  d E =-.343570E-01  mag=     0.0000
       N       E                     dE             d eps       ncg     rms          rms(c)
DAV:   1    -0.350560318980E+02    0.59049E-01   -0.37669E+01   992   0.259E+01    0.787E-01
DAV:   2    -0.351283171930E+02   -0.72285E-01   -0.79211E-01  1288   0.962E+00    0.689E-01
DAV:   3    -0.351247494630E+02    0.35677E-02   -0.44109E-02  1104   0.716E+00    0.444E-01
DAV:   4    -0.351235799733E+02    0.11695E-02   -0.16687E-02  1200   0.402E+00    0.281E-01
DAV:   5    -0.351243277697E+02   -0.74780E-03   -0.26852E-02  1424   0.516E+00    0.239E-01
DAV:   6    -0.351229587534E+02    0.13690E-02   -0.12553E-02  1320   0.386E+00    0.358E-02
DAV:   7    -0.351231068807E+02   -0.14813E-03   -0.20613E-03  1272   0.664E-01    0.321E-02
DAV:   8    -0.351231188125E+02   -0.11932E-04   -0.31486E-04   688   0.295E-01
  19 F= -.38423905E+02 E0= -.38425949E+02  d E =-.354896E-01  mag=     0.0000
       N       E                     dE             d eps       ncg     rms          rms(c)
DAV:   1    -0.351087850032E+02    0.14322E-01   -0.93078E+00   992   0.126E+01    0.370E-01
DAV:   2    -0.351253811929E+02   -0.16596E-01   -0.18224E-01  1296   0.325E+00    0.315E-01
DAV:   3    -0.351246198759E+02    0.76132E-03   -0.64452E-03  1096   0.221E+00    0.220E-01
DAV:   4    -0.351242959618E+02    0.32391E-03   -0.25304E-03  1088   0.190E+00    0.141E-01
DAV:   5    -0.351241913198E+02    0.10464E-03   -0.24363E-03  1184   0.165E+00    0.547E-02
DAV:   6    -0.351241849752E+02    0.63446E-05   -0.19492E-03   632   0.144E+00
  20 F= -.38428715E+02 E0= -.38431000E+02  d E =-.402994E-01  mag=     0.0000
       N       E                     dE             d eps       ncg     rms          rms(c)
DAV:   1    -0.351369922190E+02   -0.12801E-01   -0.17764E+00   984   0.540E+00    0.222E-01
DAV:   2    -0.351396975284E+02   -0.27053E-02   -0.34606E-02  1248   0.149E+00    0.168E-01
DAV:   3    -0.351395652396E+02    0.13229E-03   -0.25327E-03  1048   0.159E+00    0.125E-01
DAV:   4    -0.351393768604E+02    0.18838E-03   -0.10730E-03   984   0.138E+00
  21 F= -.38438057E+02 E0= -.38440239E+02  d E =-.934139E-02  mag=     0.0000
       N       E                     dE             d eps       ncg     rms          rms(c)
DAV:   1    -0.351425466882E+02   -0.29814E-02   -0.40654E-01   984   0.270E+00    0.110E-01
DAV:   2    -0.351431846506E+02   -0.63796E-03   -0.86734E-03  1464   0.134E+00    0.835E-02
DAV:   3    -0.351431854673E+02   -0.81666E-06   -0.24311E-03   960   0.157E+00    0.735E-02
DAV:   4    -0.351431176033E+02    0.67864E-04   -0.79921E-04   672   0.861E-01
  22 F= -.38439332E+02 E0= -.38441433E+02  d E =-.106170E-01  mag=     0.0000
       N       E                     dE             d eps       ncg     rms          rms(c)
DAV:   1    -0.351546951018E+02   -0.11510E-01   -0.27991E+00   992   0.681E+00    0.205E-01
DAV:   2    -0.351592395968E+02   -0.45445E-02   -0.50583E-02  1304   0.195E+00    0.168E-01
DAV:   3    -0.351591509050E+02    0.88692E-04   -0.35964E-03  1104   0.159E+00    0.126E-01
DAV:   4    -0.351590516527E+02    0.99252E-04   -0.16001E-03  1016   0.142E+00
  23 F= -.38450022E+02 E0= -.38451970E+02  d E =-.106896E-01  mag=     0.0000
       N       E                     dE             d eps       ncg     rms          rms(c)
DAV:   1    -0.351505483607E+02    0.86025E-02   -0.25385E+01   992   0.210E+01    0.626E-01
DAV:   2    -0.351960684794E+02   -0.45520E-01   -0.50560E-01  1288   0.570E+00    0.508E-01
DAV:   3    -0.351950066274E+02    0.10619E-02   -0.38473E-02  1152   0.546E+00    0.399E-01
DAV:   4    -0.351938557298E+02    0.11509E-02   -0.18946E-02  1128   0.503E+00    0.274E-01
DAV:   5    -0.351937131237E+02    0.14261E-03   -0.17106E-02  1680   0.362E+00    0.164E-01
DAV:   6    -0.351932209094E+02    0.49221E-03   -0.58618E-03  1280   0.263E+00    0.613E-02
DAV:   7    -0.351932069283E+02    0.13981E-04   -0.11844E-03   952   0.832E-01
  24 F= -.38468258E+02 E0= -.38469906E+02  d E =-.289260E-01  mag=     0.0000
       N       E                     dE             d eps       ncg     rms          rms(c)
DAV:   1    -0.351959032201E+02   -0.26823E-02   -0.27507E+00   992   0.673E+00    0.201E-01
DAV:   2    -0.352004246536E+02   -0.45214E-02   -0.49830E-02  1288   0.194E+00    0.164E-01
DAV:   3    -0.352003780545E+02    0.46599E-04   -0.36604E-03  1096   0.162E+00    0.125E-01
DAV:   4    -0.352002836424E+02    0.94412E-04   -0.13541E-03  1040   0.129E+00
  25 F= -.38470026E+02 E0= -.38471558E+02  d E =-.306938E-01  mag=     0.0000
       N       E                     dE             d eps       ncg     rms          rms(c)
DAV:   1    -0.352117683809E+02   -0.11390E-01   -0.63372E+00   992   0.105E+01    0.312E-01
DAV:   2    -0.352222092426E+02   -0.10441E-01   -0.11776E-01  1312   0.306E+00    0.254E-01
DAV:   3    -0.352221239193E+02    0.85323E-04   -0.14715E-02  1144   0.333E+00    0.217E-01
DAV:   4    -0.352216399695E+02    0.48395E-03   -0.57244E-03  1072   0.258E+00    0.133E-01
DAV:   5    -0.352216455541E+02   -0.55846E-05   -0.29648E-03  1424   0.139E+00    0.706E-02
DAV:   6    -0.352215870862E+02    0.58468E-04   -0.77001E-04   768   0.112E+00
  26 F= -.38481882E+02 E0= -.38482762E+02  d E =-.118555E-01  mag=     0.0000
       N       E                     dE             d eps       ncg     rms          rms(c)
DAV:   1    -0.352100017898E+02    0.11644E-01   -0.25381E+01  1008   0.211E+01    0.602E-01
DAV:   2    -0.352536692953E+02   -0.43668E-01   -0.47673E-01  1296   0.529E+00    0.502E-01
DAV:   3    -0.352519663474E+02    0.17029E-02   -0.20806E-02  1144   0.367E+00    0.358E-01
DAV:   4    -0.352509742018E+02    0.99215E-03   -0.69514E-03  1104   0.330E+00    0.246E-01
DAV:   5    -0.352504927440E+02    0.48146E-03   -0.57746E-03  1568   0.210E+00    0.545E-02
DAV:   6    -0.352506019778E+02   -0.10923E-03   -0.24011E-03   936   0.158E+00    0.657E-02
DAV:   7    -0.352504871576E+02    0.11482E-03   -0.11298E-03   656   0.109E+00
  27 F= -.38492661E+02 E0= -.38492376E+02  d E =-.226348E-01  mag=     0.0000
       N       E                     dE             d eps       ncg     rms          rms(c)
DAV:   1    -0.352611438097E+02   -0.10542E-01   -0.20043E+00  1000   0.586E+00    0.173E-01
DAV:   2    -0.352644998973E+02   -0.33561E-02   -0.37190E-02  1304   0.173E+00    0.146E-01
DAV:   3    -0.352644175067E+02    0.82391E-04   -0.24125E-03  1112   0.137E+00    0.106E-01
DAV:   4    -0.352643290915E+02    0.88415E-04   -0.66038E-04   952   0.934E-01
  28 F= -.38499598E+02 E0= -.38499011E+02  d E =-.693759E-02  mag=     0.0000
       N       E                     dE             d eps       ncg     rms          rms(c)
DAV:   1    -0.352688768826E+02   -0.44594E-02   -0.10993E+01  1000   0.138E+01    0.413E-01
DAV:   2    -0.352876677449E+02   -0.18791E-01   -0.20865E-01  1272   0.394E+00    0.357E-01
DAV:   3    -0.352868328164E+02    0.83493E-03   -0.11394E-02  1144   0.320E+00    0.252E-01
DAV:   4    -0.352864594626E+02    0.37335E-03   -0.75133E-03  1216   0.289E+00    0.166E-01
DAV:   5    -0.352862840230E+02    0.17544E-03   -0.87975E-03  1304   0.305E+00    0.981E-02
DAV:   6    -0.352860400319E+02    0.24399E-03   -0.33442E-03   984   0.180E+00    0.297E-02
DAV:   7    -0.352860502287E+02   -0.10197E-04   -0.47312E-04   720   0.508E-01
  29 F= -.38506342E+02 E0= -.38505108E+02  d E =-.136814E-01  mag=     0.0000
       N       E                     dE             d eps       ncg     rms          rms(c)
DAV:   1    -0.352849326855E+02    0.11073E-02   -0.58355E-02  1000   0.100E+00    0.351E-02
DAV:   2    -0.352850163710E+02   -0.83685E-04   -0.10190E-03  1048   0.341E-01
  30 F= -.38506360E+02 E0= -.38505166E+02  d E =-.136993E-01  mag=     0.0000
       N       E                     dE             d eps       ncg     rms          rms(c)
DAV:   1    -0.352857503700E+02   -0.81768E-03   -0.29732E-02  1016   0.764E-01    0.208E-02
DAV:   2    -0.352857868065E+02   -0.36436E-04   -0.36636E-04   736   0.233E-01
  31 F= -.38506368E+02 E0= -.38505150E+02  d E =-.137076E-01  mag=     0.0000
       N       E                     dE             d eps       ncg     rms          rms(c)
DAV:   1    -0.352854174068E+02    0.33296E-03   -0.74888E-03  1344   0.500E-01    0.152E-02
DAV:   2    -0.352854353835E+02   -0.17977E-04   -0.24066E-04   664   0.536E-01
  32 F= -.38506398E+02 E0= -.38505198E+02  d E =-.137369E-01  mag=     0.0000
       N       E                     dE             d eps       ncg     rms          rms(c)
DAV:   1    -0.352855046168E+02   -0.87210E-04   -0.47474E-04   744   0.400E-01    0.128E-02
DAV:   2    -0.352855389254E+02   -0.34309E-04   -0.33716E-04   656   0.350E-01
  33 F= -.38506368E+02 E0= -.38505160E+02  d E =-.137070E-01  mag=     0.0000
       N       E                     dE             d eps       ncg     rms          rms(c)
DAV:   1    -0.352854350166E+02    0.69600E-04   -0.26221E-04   736   0.281E-01    0.737E-03
DAV:   2    -0.352854421529E+02   -0.71363E-05   -0.49578E-05   632   0.558E-02
  34 F= -.38506391E+02 E0= -.38505184E+02  d E =-.137307E-01  mag=     0.0000
       N       E                     dE             d eps       ncg     rms          rms(c)
DAV:   1    -0.352855034806E+02   -0.68464E-04   -0.89380E-05   648   0.104E-01    0.878E-03
DAV:   2    -0.352855103639E+02   -0.68833E-05   -0.65870E-05   616   0.240E-01
  35 F= -.38506399E+02 E0= -.38505189E+02  d E =-.137387E-01  mag=     0.0000
       N       E                     dE             d eps       ncg     rms          rms(c)
DAV:   1    -0.352854756236E+02    0.27857E-04   -0.25118E-05   512   0.166E-01    0.294E-03
DAV:   2    -0.352854772262E+02   -0.16025E-05   -0.53968E-06   648   0.701E-02
  36 F= -.38506400E+02 E0= -.38505194E+02  d E =-.137395E-01  mag=     0.0000
       N       E                     dE             d eps       ncg     rms          rms(c)
DAV:   1    -0.352854949078E+02   -0.19284E-04   -0.53325E-06   512   0.592E-02    0.154E-03
DAV:   2    -0.352854962917E+02   -0.13838E-05   -0.41195E-06   616   0.598E-02
  37 F= -.38506402E+02 E0= -.38505194E+02  d E =-.137416E-01  mag=     0.0000
       N       E                     dE             d eps       ncg     rms          rms(c)
DAV:   1    -0.352854913312E+02    0.35767E-05   -0.19912E-06   504   0.428E-02    0.436E-04
DAV:   2    -0.352854922281E+02   -0.89693E-06   -0.11741E-06   632   0.964E-03
  38 F= -.38506404E+02 E0= -.38505195E+02  d E =-.137427E-01  mag=     0.0000
       N       E                     dE             d eps       ncg     rms          rms(c)
DAV:   1    -0.352886063098E+02   -0.31150E-02   -0.35095E-01   992   0.242E+00    0.717E-02
DAV:   2    -0.352891305199E+02   -0.52421E-03   -0.58896E-03  1296   0.620E-01    0.580E-02
DAV:   3    -0.352891150860E+02    0.15434E-04   -0.28960E-04   688   0.471E-01
  39 F= -.38507695E+02 E0= -.38506415E+02  d E =-.129137E-02  mag=     0.0000
       N       E                     dE             d eps       ncg     rms          rms(c)
DAV:   1    -0.352948138387E+02   -0.56833E-02   -0.31591E+00   992   0.728E+00    0.232E-01
DAV:   2    -0.352996252912E+02   -0.48115E-02   -0.53994E-02  1280   0.177E+00    0.187E-01
DAV:   3    -0.352993796016E+02    0.24569E-03   -0.21735E-03  1088   0.130E+00    0.132E-01
DAV:   4    -0.352992850978E+02    0.94504E-04   -0.15155E-03  1032   0.150E+00
  40 F= -.38510909E+02 E0= -.38509497E+02  d E =-.450535E-02  mag=     0.0000
       N       E                     dE             d eps       ncg     rms          rms(c)
DAV:   1    -0.352968048388E+02    0.25748E-02   -0.12598E+01   992   0.147E+01    0.447E-01
DAV:   2    -0.353175825454E+02   -0.20778E-01   -0.22927E-01  1304   0.470E+00    0.387E-01
DAV:   3    -0.353167947746E+02    0.78777E-03   -0.18010E-02  1096   0.443E+00    0.278E-01
DAV:   4    -0.353163500593E+02    0.44472E-03   -0.12416E-02  1368   0.344E+00    0.181E-01
DAV:   5    -0.353160125703E+02    0.33749E-03   -0.85394E-03  1624   0.283E+00    0.693E-02
DAV:   6    -0.353159558864E+02    0.56684E-04   -0.22039E-03   968   0.144E+00    0.397E-02
DAV:   7    -0.353159775628E+02   -0.21676E-04   -0.68103E-04   888   0.563E-01
  41 F= -.38513915E+02 E0= -.38512235E+02  d E =-.751189E-02  mag=     0.0000
       N       E                     dE             d eps       ncg     rms          rms(c)
DAV:   1    -0.353203431546E+02   -0.43873E-02   -0.10733E+00   984   0.422E+00    0.135E-01
DAV:   2    -0.353220911926E+02   -0.17480E-02   -0.19552E-02  1240   0.106E+00    0.105E-01
DAV:   3    -0.353220675092E+02    0.23683E-04   -0.11120E-03  1016   0.828E-01
  42 F= -.38515712E+02 E0= -.38514024E+02  d E =-.179668E-02  mag=     0.0000
       N       E                     dE             d eps       ncg     rms          rms(c)
DAV:   1    -0.353255466016E+02   -0.34554E-02   -0.93218E-01   976   0.399E+00    0.153E-01
DAV:   2    -0.353269223196E+02   -0.13757E-02   -0.16332E-02  1248   0.920E-01    0.116E-01
DAV:   3    -0.353268392913E+02    0.83028E-04   -0.66918E-04   952   0.808E-01
  43 F= -.38516567E+02 E0= -.38514870E+02  d E =-.265116E-02  mag=     0.0000
       N       E                     dE             d eps       ncg     rms          rms(c)
DAV:   1    -0.353282891848E+02   -0.13669E-02   -0.12800E-01  1272   0.175E+00    0.699E-02
DAV:   2    -0.353284047841E+02   -0.11560E-03   -0.19358E-03  1000   0.129E+00
  44 F= -.38516707E+02 E0= -.38515010E+02  d E =-.279159E-02  mag=     0.0000
       N       E                     dE             d eps       ncg     rms          rms(c)
DAV:   1    -0.353315531186E+02   -0.32639E-02   -0.94509E-01   984   0.410E+00    0.160E-01
DAV:   2    -0.353330794905E+02   -0.15264E-02   -0.18521E-02  1312   0.147E+00    0.122E-01
DAV:   3    -0.353331339007E+02   -0.54410E-04   -0.41372E-03  1072   0.193E+00    0.111E-01
DAV:   4    -0.353329599692E+02    0.17393E-03   -0.19068E-03  1024   0.161E+00
  45 F= -.38518294E+02 E0= -.38516643E+02  d E =-.158653E-02  mag=     0.0000
       N       E                     dE             d eps       ncg     rms          rms(c)
DAV:   1    -0.353353335368E+02   -0.21996E-02   -0.89146E-01   968   0.389E+00    0.128E-01
DAV:   2    -0.353368784274E+02   -0.15449E-02   -0.17069E-02  1264   0.931E-01    0.981E-02
DAV:   3    -0.353368173919E+02    0.61035E-04   -0.53012E-04   880   0.505E-01
  46 F= -.38519321E+02 E0= -.38517700E+02  d E =-.261411E-02  mag=     0.0000
       N       E                     dE             d eps       ncg     rms          rms(c)
DAV:   1    -0.353379943836E+02   -0.11160E-02   -0.16895E-01  1024   0.185E+00    0.805E-02
DAV:   2    -0.353382393145E+02   -0.24493E-03   -0.32801E-03  1336   0.116E+00    0.669E-02
DAV:   3    -0.353382038238E+02    0.35491E-04   -0.47066E-04   664   0.822E-01
  47 F= -.38519499E+02 E0= -.38517893E+02  d E =-.279161E-02  mag=     0.0000
       N       E                     dE             d eps       ncg     rms          rms(c)
DAV:   1    -0.353410860660E+02   -0.28468E-02   -0.10931E+00   968   0.427E+00    0.153E-01
DAV:   2    -0.353428487503E+02   -0.17627E-02   -0.20221E-02  1264   0.106E+00    0.120E-01
DAV:   3    -0.353427695638E+02    0.79187E-04   -0.93204E-04   952   0.840E-01
  48 F= -.38521363E+02 E0= -.38519782E+02  d E =-.186469E-02  mag=     0.0000
       N       E                     dE             d eps       ncg     rms          rms(c)
DAV:   1    -0.353437297187E+02   -0.88097E-03   -0.45782E+00   968   0.876E+00    0.323E-01
DAV:   2    -0.353507688412E+02   -0.70391E-02   -0.81344E-02  1248   0.219E+00    0.251E-01
DAV:   3    -0.353505411021E+02    0.22774E-03   -0.50935E-03  1120   0.217E+00    0.185E-01
DAV:   4    -0.353503957842E+02    0.14532E-03   -0.52352E-03  1128   0.262E+00    0.112E-01
DAV:   5    -0.353502601439E+02    0.13564E-03   -0.47256E-03   904   0.242E+00    0.572E-02
DAV:   6    -0.353501271712E+02    0.13297E-03   -0.10734E-03   664   0.108E+00
  49 F= -.38523476E+02 E0= -.38521924E+02  d E =-.397784E-02  mag=     0.0000
       N       E                     dE             d eps       ncg     rms          rms(c)
DAV:   1    -0.353516299817E+02   -0.13698E-02   -0.13255E+00   992   0.464E+00    0.158E-01
DAV:   2    -0.353537201820E+02   -0.20902E-02   -0.23281E-02  1280   0.147E+00    0.127E-01
DAV:   3    -0.353537116631E+02    0.85188E-05   -0.29042E-03  1088   0.173E+00    0.100E-01
DAV:   4    -0.353535936743E+02    0.11799E-03   -0.16321E-03   744   0.145E+00
  50 F= -.38526212E+02 E0= -.38524611E+02  d E =-.273551E-02  mag=     0.0000
       N       E                     dE             d eps       ncg     rms          rms(c)
DAV:   1    -0.353534574088E+02    0.25425E-03   -0.12128E+00   984   0.453E+00    0.152E-01
DAV:   2    -0.353554347060E+02   -0.19773E-02   -0.22475E-02  1296   0.155E+00    0.120E-01
DAV:   3    -0.353554626811E+02   -0.27975E-04   -0.35240E-03  1072   0.179E+00    0.104E-01
DAV:   4    -0.353553263901E+02    0.13629E-03   -0.16113E-03   872   0.145E+00
  51 F= -.38527419E+02 E0= -.38525779E+02  d E =-.394293E-02  mag=     0.0000
       N       E                     dE             d eps       ncg     rms          rms(c)
DAV:   1    -0.353565539761E+02   -0.10913E-02   -0.34800E-01   968   0.247E+00    0.822E-02
DAV:   2    -0.353571657855E+02   -0.61181E-03   -0.68704E-03  1328   0.101E+00    0.716E-02
DAV:   3    -0.353571474934E+02    0.18292E-04   -0.65095E-04   928   0.754E-01
  52 F= -.38528851E+02 E0= -.38527180E+02  d E =-.143184E-02  mag=     0.0000
       N       E                     dE             d eps       ncg     rms          rms(c)
DAV:   1    -0.353559601679E+02    0.12056E-02   -0.31017E+00   968   0.715E+00    0.238E-01
DAV:   2    -0.353609618517E+02   -0.50017E-02   -0.56654E-02  1280   0.177E+00    0.195E-01
DAV:   3    -0.353606784689E+02    0.28338E-03   -0.23100E-03  1120   0.149E+00    0.137E-01
DAV:   4    -0.353606003068E+02    0.78162E-04   -0.29641E-03  1128   0.206E+00    0.927E-02
DAV:   5    -0.353604970921E+02    0.10321E-03   -0.28721E-03   760   0.175E+00    0.584E-02
DAV:   6    -0.353604108525E+02    0.86240E-04   -0.59319E-04   664   0.891E-01
  53 F= -.38531203E+02 E0= -.38529439E+02  d E =-.378363E-02  mag=     0.0000
       N       E                     dE             d eps       ncg     rms          rms(c)
DAV:   1    -0.353606632420E+02   -0.16615E-03   -0.47204E-02  1016   0.897E-01    0.301E-02
DAV:   2    -0.353607197056E+02   -0.56464E-04   -0.74248E-04  1040   0.357E-01
  54 F= -.38531581E+02 E0= -.38529839E+02  d E =-.377918E-03  mag=     0.0000
       N       E                     dE             d eps       ncg     rms          rms(c)
DAV:   1    -0.353607547665E+02   -0.91524E-04   -0.42789E-03  1392   0.486E-01    0.268E-02
DAV:   2    -0.353607562634E+02   -0.14969E-05   -0.18118E-04   624   0.441E-01
  55 F= -.38531640E+02 E0= -.38529904E+02  d E =-.436565E-03  mag=     0.0000
       N       E                     dE             d eps       ncg     rms          rms(c)
DAV:   1    -0.353607144856E+02    0.40281E-04   -0.15320E-02  1376   0.681E-01    0.292E-02
DAV:   2    -0.353607251622E+02   -0.10677E-04   -0.29591E-04   656   0.542E-01
  56 F= -.38531656E+02 E0= -.38529931E+02  d E =-.453176E-03  mag=     0.0000
       N       E                     dE             d eps       ncg     rms          rms(c)
DAV:   1    -0.353604506772E+02    0.26381E-03   -0.38916E-02  1248   0.967E-01    0.260E-02
DAV:   2    -0.353604775114E+02   -0.26834E-04   -0.41515E-04   672   0.567E-01
  57 F= -.38531917E+02 E0= -.38530204E+02  d E =-.260860E-03  mag=     0.0000
       N       E                     dE             d eps       ncg     rms          rms(c)
DAV:   1    -0.353594971698E+02    0.95351E-03   -0.16352E-01  1024   0.176E+00    0.431E-02
DAV:   2    -0.353597932746E+02   -0.29610E-03   -0.32838E-03  1416   0.572E-01    0.416E-02
DAV:   3    -0.353597874917E+02    0.57828E-05   -0.34045E-04   624   0.528E-01
  58 F= -.38532283E+02 E0= -.38530590E+02  d E =-.626956E-03  mag=     0.0000
       N       E                     dE             d eps       ncg     rms          rms(c)
DAV:   1    -0.353595206834E+02    0.27259E-03   -0.13565E-02  1328   0.569E-01    0.320E-02
DAV:   2    -0.353595185696E+02    0.21137E-05   -0.11397E-04   616   0.269E-01
  59 F= -.38532314E+02 E0= -.38530628E+02  d E =-.658070E-03  mag=     0.0000
       N       E                     dE             d eps       ncg     rms          rms(c)
DAV:   1    -0.353588353507E+02    0.68533E-03   -0.51754E-02  1048   0.105E+00    0.311E-02
DAV:   2    -0.353588690860E+02   -0.33735E-04   -0.54231E-04   672   0.693E-01
  60 F= -.38532268E+02 E0= -.38530594E+02  d E =-.611367E-03  mag=     0.0000
       N       E                     dE             d eps       ncg     rms          rms(c)
DAV:   1    -0.353593721123E+02   -0.53676E-03   -0.30806E-02  1432   0.936E-01    0.164E-02
DAV:   2    -0.353593882052E+02   -0.16093E-04   -0.19646E-04   616   0.450E-01
  61 F= -.38532323E+02 E0= -.38530639E+02  d E =-.666984E-03  mag=     0.0000
       N       E                     dE             d eps       ncg     rms          rms(c)
DAV:   1    -0.353591599846E+02    0.21213E-03   -0.77183E-03  1456   0.516E-01    0.102E-02
DAV:   2    -0.353591636695E+02   -0.36850E-05   -0.46971E-05   624   0.212E-01
  62 F= -.38532330E+02 E0= -.38530651E+02  d E =-.673926E-03  mag=     0.0000
       N       E                     dE             d eps       ncg     rms          rms(c)
DAV:   1    -0.353587015928E+02    0.45839E-03   -0.45434E-02  1008   0.908E-01    0.202E-02
DAV:   2    -0.353587717263E+02   -0.70134E-04   -0.75523E-04   928   0.224E-01
  63 F= -.38532577E+02 E0= -.38530906E+02  d E =-.247353E-03  mag=     0.0000
       N       E                     dE             d eps       ncg     rms          rms(c)
DAV:   1    -0.353585889590E+02    0.11263E-03   -0.81092E-03  1104   0.413E-01    0.198E-02
DAV:   2    -0.353585897624E+02   -0.80338E-06   -0.70623E-05   608   0.192E-01
  64 F= -.38532656E+02 E0= -.38530986E+02  d E =-.325489E-03  mag=     0.0000
       N       E                     dE             d eps       ncg     rms          rms(c)
DAV:   1    -0.353581492334E+02    0.43973E-03   -0.30064E-02  1024   0.777E-01    0.234E-02
DAV:   2    -0.353581628050E+02   -0.13572E-04   -0.27719E-04   632   0.433E-01
  65 F= -.38532751E+02 E0= -.38531086E+02  d E =-.421000E-03  mag=     0.0000
       N       E                     dE             d eps       ncg     rms          rms(c)
DAV:   1    -0.353579942768E+02    0.15496E-03   -0.69917E-03  1360   0.584E-01    0.256E-02
DAV:   2    -0.353579956050E+02   -0.13283E-05   -0.14027E-04   608   0.402E-01
  66 F= -.38532821E+02 E0= -.38531155E+02  d E =-.491018E-03  mag=     0.0000
       N       E                     dE             d eps       ncg     rms          rms(c)
DAV:   1    -0.353575516789E+02    0.44260E-03   -0.24689E-02  1304   0.770E-01    0.267E-02
DAV:   2    -0.353575674034E+02   -0.15724E-04   -0.35952E-04   632   0.599E-01
  67 F= -.38532869E+02 E0= -.38531207E+02  d E =-.539008E-03  mag=     0.0000
       N       E                     dE             d eps       ncg     rms          rms(c)
DAV:   1    -0.353569591405E+02    0.59254E-03   -0.45266E-02  1192   0.102E+00    0.278E-02
DAV:   2    -0.353569923522E+02   -0.33212E-04   -0.48495E-04   792   0.463E-01
  68 F= -.38533183E+02 E0= -.38531518E+02  d E =-.314290E-03  mag=     0.0000
       N       E                     dE             d eps       ncg     rms          rms(c)
DAV:   1    -0.353544700461E+02    0.24891E-02   -0.40198E-01   992   0.263E+00    0.627E-02
DAV:   2    -0.353551174115E+02   -0.64737E-03   -0.70975E-03  1344   0.892E-01    0.638E-02
DAV:   3    -0.353550985848E+02    0.18827E-04   -0.68953E-04   808   0.728E-01
  69 F= -.38533979E+02 E0= -.38532302E+02  d E =-.111012E-02  mag=     0.0000
       N       E                     dE             d eps       ncg     rms          rms(c)
DAV:   1    -0.353476595501E+02    0.74579E-02   -0.16091E+00   992   0.520E+00    0.129E-01
DAV:   2    -0.353502125373E+02   -0.25530E-02   -0.27641E-02  1312   0.172E+00    0.137E-01
DAV:   3    -0.353500947808E+02    0.11776E-03   -0.16149E-03   984   0.107E+00
  70 F= -.38534467E+02 E0= -.38532771E+02  d E =-.159837E-02  mag=     0.0000
       N       E                     dE             d eps       ncg     rms          rms(c)
DAV:   1    -0.353523854416E+02   -0.21729E-02   -0.67617E-01   992   0.344E+00    0.667E-02
DAV:   2    -0.353535555233E+02   -0.11701E-02   -0.12072E-02  1424   0.130E+00    0.510E-02
DAV:   3    -0.353535518277E+02    0.36956E-05   -0.14866E-03   992   0.107E+00
  71 F= -.38534321E+02 E0= -.38532635E+02  d E =-.145198E-02  mag=     0.0000
       N       E                     dE             d eps       ncg     rms          rms(c)
DAV:   1    -0.353515970793E+02    0.19584E-02   -0.16905E-01   992   0.173E+00    0.352E-02
DAV:   2    -0.353519044454E+02   -0.30737E-03   -0.31858E-03  1320   0.420E-01    0.295E-02
DAV:   3    -0.353518943352E+02    0.10110E-04   -0.98616E-05   608   0.253E-01
  72 F= -.38534456E+02 E0= -.38532767E+02  d E =-.158697E-02  mag=     0.0000
       N       E                     dE             d eps       ncg     rms          rms(c)
DAV:   1    -0.353514979306E+02    0.40651E-03   -0.22415E-02   984   0.626E-01    0.203E-02
DAV:   2    -0.353515110328E+02   -0.13102E-04   -0.18585E-04   632   0.232E-01
  73 F= -.38534650E+02 E0= -.38532960E+02  d E =-.194329E-03  mag=     0.0000
       N       E                     dE             d eps       ncg     rms          rms(c)
DAV:   1    -0.353500461993E+02    0.14517E-02   -0.19807E-01   984   0.186E+00    0.446E-02
DAV:   2    -0.353503458569E+02   -0.29966E-03   -0.33613E-03  1344   0.589E-01    0.458E-02
DAV:   3    -0.353503344526E+02    0.11404E-04   -0.31856E-04   632   0.485E-01
  74 F= -.38535217E+02 E0= -.38533520E+02  d E =-.761369E-03  mag=     0.0000
       N       E                     dE             d eps       ncg     rms          rms(c)
DAV:   1    -0.353464165526E+02    0.39293E-02   -0.78681E-01   992   0.365E+00    0.891E-02
DAV:   2    -0.353476309431E+02   -0.12144E-02   -0.13240E-02  1312   0.112E+00    0.941E-02
DAV:   3    -0.353475770102E+02    0.53933E-04   -0.70609E-04   904   0.676E-01
  75 F= -.38535992E+02 E0= -.38534282E+02  d E =-.153584E-02  mag=     0.0000
       N       E                     dE             d eps       ncg     rms          rms(c)
DAV:   1    -0.353481312155E+02   -0.50027E-03   -0.16423E-02  1336   0.663E-01    0.479E-02
DAV:   2    -0.353481510289E+02   -0.19813E-04   -0.38633E-04   624   0.795E-01
  76 F= -.38536165E+02 E0= -.38534455E+02  d E =-.173025E-03  mag=     0.0000
       N       E                     dE             d eps       ncg     rms          rms(c)
DAV:   1    -0.353487097403E+02   -0.57852E-03   -0.22474E-02  1368   0.897E-01    0.246E-02
DAV:   2    -0.353487326356E+02   -0.22895E-04   -0.37193E-04   592   0.661E-01
  77 F= -.38536291E+02 E0= -.38534588E+02  d E =-.299376E-03  mag=     0.0000
       N       E                     dE             d eps       ncg     rms          rms(c)
DAV:   1    -0.353495273173E+02   -0.81758E-03   -0.87658E-02  1048   0.131E+00    0.367E-02
DAV:   2    -0.353496755657E+02   -0.14825E-03   -0.17443E-03  1312   0.454E-01
  78 F= -.38536335E+02 E0= -.38534642E+02  d E =-.343591E-03  mag=     0.0000
       N       E                     dE             d eps       ncg     rms          rms(c)
DAV:   1    -0.353491902934E+02    0.33702E-03   -0.22907E-02  1256   0.767E-01    0.183E-02
DAV:   2    -0.353492127591E+02   -0.22466E-04   -0.26619E-04   616   0.531E-01
  79 F= -.38536334E+02 E0= -.38534634E+02  d E =-.341935E-03  mag=     0.0000
       N       E                     dE             d eps       ncg     rms          rms(c)
DAV:   1    -0.353494511098E+02   -0.26082E-03   -0.58703E-03  1400   0.511E-01    0.107E-02
DAV:   2    -0.353494550860E+02   -0.39761E-05   -0.65653E-05   568   0.262E-01
  80 F= -.38536345E+02 E0= -.38534650E+02  d E =-.353189E-03  mag=     0.0000
       N       E                     dE             d eps       ncg     rms          rms(c)
DAV:   1    -0.353499305401E+02   -0.47943E-03   -0.34524E-02  1064   0.786E-01    0.144E-02
DAV:   2    -0.353499609118E+02   -0.30372E-04   -0.36413E-04   640   0.262E-01
  81 F= -.38536558E+02 E0= -.38534867E+02  d E =-.212732E-03  mag=     0.0000
       N       E                     dE             d eps       ncg     rms          rms(c)
DAV:   1    -0.353503310652E+02   -0.40053E-03   -0.21022E-02  1240   0.672E-01    0.219E-02
DAV:   2    -0.353503355084E+02   -0.44432E-05   -0.15135E-04   600   0.341E-01
  82 F= -.38536711E+02 E0= -.38535025E+02  d E =-.366347E-03  mag=     0.0000
       N       E                     dE             d eps       ncg     rms          rms(c)
DAV:   1    -0.353508259224E+02   -0.49486E-03   -0.79589E-02  1072   0.121E+00    0.295E-02
DAV:   2    -0.353509299347E+02   -0.10401E-03   -0.12870E-03  1088   0.501E-01
  83 F= -.38536868E+02 E0= -.38535188E+02  d E =-.523158E-03  mag=     0.0000
       N       E                     dE             d eps       ncg     rms          rms(c)
DAV:   1    -0.353510634170E+02   -0.23749E-03   -0.24969E-03  1328   0.535E-01    0.258E-02
DAV:   2    -0.353510648779E+02   -0.14610E-05   -0.12484E-04   584   0.383E-01
  84 F= -.38536957E+02 E0= -.38535276E+02  d E =-.892012E-04  mag=     0.0000
       N       E                     dE             d eps       ncg     rms          rms(c)
DAV:   1    -0.353513804340E+02   -0.31702E-03   -0.18167E-02  1216   0.691E-01    0.184E-02
DAV:   2    -0.353513946419E+02   -0.14208E-04   -0.22258E-04   656   0.459E-01
  85 F= -.38537151E+02 E0= -.38535462E+02  d E =-.283033E-03  mag=     0.0000
       N       E                     dE             d eps       ncg     rms          rms(c)
DAV:   1    -0.353518801458E+02   -0.49971E-03   -0.70871E-02   960   0.117E+00    0.264E-02
DAV:   2    -0.353520007558E+02   -0.12061E-03   -0.12708E-03  1184   0.296E-01
  86 F= -.38537491E+02 E0= -.38535789E+02  d E =-.623040E-03  mag=     0.0000
       N       E                     dE             d eps       ncg     rms          rms(c)
DAV:   1    -0.353524995658E+02   -0.61942E-03   -0.28394E-01   968   0.220E+00    0.503E-02
DAV:   2    -0.353529470799E+02   -0.44751E-03   -0.47215E-03  1360   0.539E-01    0.477E-02
DAV:   3    -0.353529375875E+02    0.94924E-05   -0.13884E-04   632   0.250E-01
  87 F= -.38537917E+02 E0= -.38536182E+02  d E =-.104895E-02  mag=     0.0000
       N       E                     dE             d eps       ncg     rms          rms(c)
DAV:   1    -0.353529768190E+02   -0.29739E-04   -0.94521E-04   832   0.462E-01    0.336E-02
DAV:   2    -0.353530385896E+02   -0.61771E-04   -0.92152E-04   752   0.101E+00
  88 F= -.38538025E+02 E0= -.38536286E+02  d E =-.107844E-03  mag=     0.0000
       N       E                     dE             d eps       ncg     rms          rms(c)
DAV:   1    -0.353529857085E+02   -0.88894E-05   -0.54742E-04   696   0.734E-01    0.147E-02
DAV:   2    -0.353530047599E+02   -0.19051E-04   -0.19456E-04   600   0.354E-01
  89 F= -.38537994E+02 E0= -.38536259E+02  d E =-.764136E-04  mag=     0.0000
       N       E                     dE             d eps       ncg     rms          rms(c)
DAV:   1    -0.353530099661E+02   -0.24258E-04   -0.24638E-04   640   0.314E-01    0.954E-03
DAV:   2    -0.353530238553E+02   -0.13889E-04   -0.12995E-04   560   0.191E-01
  90 F= -.38538038E+02 E0= -.38536304E+02  d E =-.443935E-04  mag=     0.0000
       N       E                     dE             d eps       ncg     rms          rms(c)
DAV:   1    -0.353530195315E+02   -0.95655E-05   -0.64285E-04   656   0.209E-01    0.108E-02
DAV:   2    -0.353530339124E+02   -0.14381E-04   -0.14617E-04   576   0.232E-01
  91 F= -.38538125E+02 E0= -.38536392E+02  d E =-.130897E-03  mag=     0.0000
       N       E                     dE             d eps       ncg     rms          rms(c)
DAV:   1    -0.353530163214E+02    0.32101E-05   -0.27686E-03  1168   0.267E-01    0.141E-02
DAV:   2    -0.353530246380E+02   -0.83166E-05   -0.86617E-05   576   0.839E-02
  92 F= -.38538271E+02 E0= -.38536540E+02  d E =-.277072E-03  mag=     0.0000
       N       E                     dE             d eps       ncg     rms          rms(c)
DAV:   1    -0.353528795056E+02    0.13682E-03   -0.94841E-03  1232   0.365E-01    0.259E-02
DAV:   2    -0.353528886750E+02   -0.91695E-05   -0.16519E-04   720   0.411E-01
  93 F= -.38538457E+02 E0= -.38536727E+02  d E =-.462973E-03  mag=     0.0000
       N       E                     dE             d eps       ncg     rms          rms(c)
DAV:   1    -0.353520596907E+02    0.81981E-03   -0.37091E-02  1232   0.718E-01    0.504E-02
DAV:   2    -0.353520802566E+02   -0.20566E-04   -0.41569E-04   832   0.410E-01
  94 F= -.38538342E+02 E0= -.38536619E+02  d E =-.348316E-03  mag=     0.0000
       N       E                     dE             d eps       ncg     rms          rms(c)
DAV:   1    -0.353527086025E+02   -0.64891E-03   -0.18342E-02  1280   0.887E-01    0.273E-02
DAV:   2    -0.353528292490E+02   -0.12065E-03   -0.18762E-03   712   0.149E+00
  95 F= -.38538598E+02 E0= -.38536868E+02  d E =-.604541E-03  mag=     0.0000
       N       E                     dE             d eps       ncg     rms          rms(c)
DAV:   1    -0.353526608210E+02    0.47781E-04   -0.17828E-03   728   0.978E-01    0.134E-02
DAV:   2    -0.353527465971E+02   -0.85776E-04   -0.86412E-04   944   0.212E-01
  96 F= -.38538589E+02 E0= -.38536866E+02  d E =0.954727E-05  mag=     0.0000
       N       E                     dE             d eps       ncg     rms          rms(c)
DAV:   1    -0.353527960566E+02   -0.13524E-03   -0.86468E-03  1056   0.395E-01    0.117E-02
DAV:   2    -0.353528035761E+02   -0.75195E-05   -0.93493E-05   704   0.240E-01
  97 F= -.38538801E+02 E0= -.38537083E+02  d E =-.202885E-03  mag=     0.0000
       N       E                     dE             d eps       ncg     rms          rms(c)
DAV:   1    -0.353528045611E+02   -0.85045E-05   -0.32747E-02   960   0.705E-01    0.228E-02
DAV:   2    -0.353528415489E+02   -0.36988E-04   -0.36867E-04   768   0.168E-01
  98 F= -.38539161E+02 E0= -.38537455E+02  d E =-.562401E-03  mag=     0.0000
       N       E                     dE             d eps       ncg     rms          rms(c)
DAV:   1    -0.353524947100E+02    0.30985E-03   -0.13137E-01   960   0.137E+00    0.436E-02
DAV:   2    -0.353526515237E+02   -0.15681E-03   -0.15606E-03  1160   0.364E-01
  99 F= -.38539658E+02 E0= -.38537973E+02  d E =-.106003E-02  mag=     0.0000
       N       E                     dE             d eps       ncg     rms          rms(c)
DAV:   1    -0.353534789775E+02   -0.98427E-03   -0.18998E-02  1264   0.613E-01    0.469E-02
DAV:   2    -0.353534933153E+02   -0.14338E-04   -0.33891E-04   760   0.546E-01
 100 F= -.38540389E+02 E0= -.38538708E+02  d E =-.731195E-03  mag=     0.0000
       N       E                     dE             d eps       ncg     rms          rms(c)
DAV:   1    -0.353538832205E+02   -0.40424E-03   -0.33168E-02  1264   0.837E-01    0.626E-02
DAV:   2    -0.353538871043E+02   -0.38838E-05   -0.61164E-04   776   0.718E-01
 101 F= -.38540694E+02 E0= -.38539016E+02  d E =-.103533E-02  mag=     0.0000
       N       E                     dE             d eps       ncg     rms          rms(c)
DAV:   1    -0.353538776271E+02    0.55933E-05   -0.74412E-04   720   0.879E-01    0.374E-02
DAV:   2    -0.353539730220E+02   -0.95395E-04   -0.15632E-03   632   0.144E+00
 102 F= -.38540783E+02 E0= -.38539104E+02  d E =-.112514E-02  mag=     0.0000
       N       E                     dE             d eps       ncg     rms          rms(c)
DAV:   1    -0.353538595035E+02    0.18124E-04   -0.86975E-04   696   0.979E-01    0.135E-02
DAV:   2    -0.353538653737E+02   -0.58701E-05   -0.54199E-05   592   0.222E-01
 103 F= -.38540673E+02 E0= -.38539000E+02  d E =-.101483E-02  mag=     0.0000
       N       E                     dE             d eps       ncg     rms          rms(c)
DAV:   1    -0.353539497280E+02   -0.90224E-04   -0.11580E-02  1200   0.446E-01    0.182E-02
DAV:   2    -0.353539611848E+02   -0.11457E-04   -0.11645E-04   728   0.284E-01
 104 F= -.38540874E+02 E0= -.38539203E+02  d E =-.201349E-03  mag=     0.0000
       N       E                     dE             d eps       ncg     rms          rms(c)
DAV:   1    -0.353540525174E+02   -0.10279E-03   -0.10376E-01   960   0.116E+00    0.424E-02
DAV:   2    -0.353541535306E+02   -0.10101E-03   -0.97239E-04   880   0.310E-01
 105 F= -.38541410E+02 E0= -.38539744E+02  d E =-.737109E-03  mag=     0.0000
       N       E                     dE             d eps       ncg     rms          rms(c)
DAV:   1    -0.353537970314E+02    0.25549E-03   -0.41843E-01   960   0.233E+00    0.895E-02
DAV:   2    -0.353543145353E+02   -0.51750E-03   -0.50463E-03  1360   0.924E-01    0.727E-02
DAV:   3    -0.353543564693E+02   -0.41934E-04   -0.10937E-03   784   0.103E+00
 106 F= -.38542423E+02 E0= -.38540777E+02  d E =-.174982E-02  mag=     0.0000
       N       E                     dE             d eps       ncg     rms          rms(c)
DAV:   1    -0.353479896701E+02    0.63249E-02   -0.16846E+00   960   0.476E+00    0.171E-01
DAV:   2    -0.353502479457E+02   -0.22583E-02   -0.23100E-02  1328   0.139E+00    0.139E-01
DAV:   3    -0.353503967498E+02   -0.14880E-03   -0.32587E-03  1064   0.182E+00    0.118E-01
DAV:   4    -0.353503788067E+02    0.17943E-04   -0.22626E-03  1080   0.160E+00    0.653E-02
DAV:   5    -0.353504126880E+02   -0.33881E-04   -0.70923E-04   688   0.856E-01
 107 F= -.38540807E+02 E0= -.38539174E+02  d E =-.134402E-03  mag=     0.0000
       N       E                     dE             d eps       ncg     rms          rms(c)
DAV:   1    -0.353525469204E+02   -0.21681E-02   -0.12537E+00   960   0.403E+00    0.129E-01
DAV:   2    -0.353543317464E+02   -0.17848E-02   -0.18207E-02  1304   0.984E-01    0.124E-01
DAV:   3    -0.353543129283E+02    0.18818E-04   -0.98581E-04   952   0.857E-01
 108 F= -.38542630E+02 E0= -.38540981E+02  d E =-.195671E-02  mag=     0.0000
       N       E                     dE             d eps       ncg     rms          rms(c)
DAV:   1    -0.353530803955E+02    0.12514E-02   -0.31369E-01  1216   0.238E+00    0.498E-02
DAV:   2    -0.353535593420E+02   -0.47895E-03   -0.61633E-03   968   0.218E+00    0.883E-02
DAV:   3    -0.353532911924E+02    0.26815E-03   -0.20145E-03   728   0.158E+00    0.264E-02
DAV:   4    -0.353533275093E+02   -0.36317E-04   -0.39159E-04   664   0.188E-01
 109 F= -.38542559E+02 E0= -.38540921E+02  d E =-.188605E-02  mag=     0.0000
       N       E                     dE             d eps       ncg     rms          rms(c)
DAV:   1    -0.353539093982E+02   -0.61821E-03   -0.92093E-02   960   0.111E+00    0.309E-02
DAV:   2    -0.353540114647E+02   -0.10207E-03   -0.10292E-03   896   0.413E-01
 110 F= -.38542722E+02 E0= -.38541083E+02  d E =-.204929E-02  mag=     0.0000
       N       E                     dE             d eps       ncg     rms          rms(c)
DAV:   1    -0.353537121858E+02    0.19721E-03   -0.25165E-02  1216   0.662E-01    0.134E-02
DAV:   2    -0.353537359607E+02   -0.23775E-04   -0.23437E-04   800   0.216E-01
 111 F= -.38542712E+02 E0= -.38541073E+02  d E =-.203936E-02  mag=     0.0000
       N       E                     dE             d eps       ncg     rms          rms(c)
DAV:   1    -0.353539250955E+02   -0.21291E-03   -0.85447E-03  1216   0.399E-01    0.880E-03
DAV:   2    -0.353539348764E+02   -0.97810E-05   -0.10406E-04   728   0.226E-01
 112 F= -.38542755E+02 E0= -.38541113E+02  d E =-.208178E-02  mag=     0.0000
       N       E                     dE             d eps       ncg     rms          rms(c)
DAV:   1    -0.353539169014E+02    0.81941E-05   -0.15349E-02   960   0.461E-01    0.103E-02
DAV:   2    -0.353539329228E+02   -0.16021E-04   -0.16134E-04   736   0.873E-02
 113 F= -.38542879E+02 E0= -.38541236E+02  d E =-.123882E-03  mag=     0.0000
       N       E                     dE             d eps       ncg     rms          rms(c)
DAV:   1    -0.353538643152E+02    0.52586E-04   -0.23523E-02   960   0.546E-01    0.210E-02
DAV:   2    -0.353538887362E+02   -0.24421E-04   -0.24080E-04   736   0.113E-01
 114 F= -.38542998E+02 E0= -.38541355E+02  d E =-.242831E-03  mag=     0.0000
       N       E                     dE             d eps       ncg     rms          rms(c)
DAV:   1    -0.353535469776E+02    0.31734E-03   -0.93423E-02   960   0.109E+00    0.388E-02
DAV:   2    -0.353536320447E+02   -0.85067E-04   -0.81534E-04   808   0.341E-01
 115 F= -.38543098E+02 E0= -.38541454E+02  d E =-.343615E-03  mag=     0.0000
       N       E                     dE             d eps       ncg     rms          rms(c)
DAV:   1    -0.353540893381E+02   -0.54236E-03   -0.11239E-02  1304   0.642E-01    0.401E-02
DAV:   2    -0.353541205702E+02   -0.31232E-04   -0.47221E-04   696   0.705E-01
 116 F= -.38543500E+02 E0= -.38541855E+02  d E =-.401374E-03  mag=     0.0000
       N       E                     dE             d eps       ncg     rms          rms(c)
DAV:   1    -0.353543246566E+02   -0.23532E-03   -0.18090E-02  1296   0.836E-01    0.434E-02
DAV:   2    -0.353543481870E+02   -0.23530E-04   -0.52399E-04   664   0.608E-01
 117 F= -.38543639E+02 E0= -.38541991E+02  d E =-.541044E-03  mag=     0.0000
       N       E                     dE             d eps       ncg     rms          rms(c)
DAV:   1    -0.353543101762E+02    0.14480E-04   -0.51596E-03  1336   0.726E-01    0.296E-02
DAV:   2    -0.353543475043E+02   -0.37328E-04   -0.59218E-04   624   0.828E-01
 118 F= -.38543730E+02 E0= -.38542079E+02  d E =-.904282E-04  mag=     0.0000
       N       E                     dE             d eps       ncg     rms          rms(c)
DAV:   1    -0.353541858212E+02    0.12435E-03   -0.42498E-02  1272   0.107E+00    0.268E-02
DAV:   2    -0.353542271633E+02   -0.41342E-04   -0.48694E-04   760   0.469E-01
 119 F= -.38543884E+02 E0= -.38542222E+02  d E =-.244776E-03  mag=     0.0000
