<?xml version="1.0" encoding="ISO-8859-1"?>
<modeling>
 <generator>
  <i name="program" type="string">vasp </i>
  <i name="version" type="string">6.3.2  </i>
  <i name="subversion" type="string">27Jun22 (build Aug 17 2022 15:43:34) complex                          parallel </i>
  <i name="platform" type="string">tv2STDVTST </i>
  <i name="date" type="string">2025 02 04 </i>
  <i name="time" type="string">13:43:27 </i>
 </generator>
 <incar>
  <i type="int" name="ISTART">     0</i>
  <i type="string" name="PREC">Normal</i>
  <i type="int" name="ISPIN">     2</i>
  <i type="int" name="ICHARG">     2</i>
  <i type="int" name="IBRION">     2</i>
  <i name="EDIFF">      0.00020000</i>
  <i name="EDIFFG">     -0.03000000</i>
  <i type="int" name="NSW">   800</i>
  <i type="int" name="ISIF">     2</i>
  <i type="int" name="ISYM">     1</i>
  <i name="ENCUT">    400.00000000</i>
  <i name="POTIM">      0.50000000</i>
  <i type="logical" name="LREAL"> F  </i>
  <i type="int" name="ISMEAR">     1</i>
  <i name="SIGMA">      0.20000000</i>
  <i type="logical" name="LWAVE"> F  </i>
  <i type="logical" name="LCHARG"> F  </i>
  <i type="string" name="GGA">PE</i>
  <i type="int" name="IVDW">    11</i>
 </incar>
 <primitive_cell>
  <structure name="primitive_cell" >
   <crystal>
    <varray name="basis" >
     <v>       3.63000011       0.00000000       0.00000000 </v>
     <v>       0.00000000       2.56679773       0.00000000 </v>
     <v>       0.00000000       0.00000000      23.98379135 </v>
    </varray>
    <i name="volume">    223.46840188 </i>
    <varray name="rec_basis" >
     <v>       0.27548208       0.00000000       0.00000000 </v>
     <v>       0.00000000       0.38959050       0.00000000 </v>
     <v>       0.00000000       0.00000000       0.04169483 </v>
    </varray>
   </crystal>
   <varray name="positions" >
    <v>       0.00000000       0.00000000       0.00000000 </v>
    <v>       0.50000000       0.50000000       0.05351109 </v>
    <v>       0.00000000       0.00000000       0.10468148 </v>
    <v>       0.50000000       0.50000000       0.15792996 </v>
    <v>       0.00000000       0.00000000       0.21070899 </v>
    <v>       0.50000000       0.50000000       0.26289048 </v>
    <v>       0.00000000       0.00000000       0.31711592 </v>
    <v>       0.50000000       0.50000000       0.36467590 </v>
    <v>       1.00000000       0.50000000       0.42690792 </v>
    <v>       1.00000000       0.79063451       0.42690792 </v>
   </varray>
  </structure>
  <varray name="primitive_index" >
   <v type="int" >        1 </v>
   <v type="int" >        2 </v>
   <v type="int" >        3 </v>
   <v type="int" >        4 </v>
   <v type="int" >        5 </v>
   <v type="int" >        6 </v>
   <v type="int" >        7 </v>
   <v type="int" >        8 </v>
   <v type="int" >        9 </v>
   <v type="int" >       10 </v>
  </varray>
 </primitive_cell>
 <kpoints>
  <generation param="Monkhorst-Pack">
   <v type="int" name="divisions">       3        3        1 </v>
   <v name="usershift">      0.00000000       0.00000000       0.00000000 </v>
   <v name="genvec1">      0.33333333       0.00000000       0.00000000 </v>
   <v name="genvec2">      0.00000000       0.33333333       0.00000000 </v>
   <v name="genvec3">      0.00000000       0.00000000       1.00000000 </v>
   <v name="shift">      0.00000000       0.00000000       0.00000000 </v>
  </generation>
  <varray name="kpointlist" >
   <v>       0.00000000       0.00000000       0.00000000 </v>
   <v>       0.33333333       0.00000000       0.00000000 </v>
   <v>       0.00000000       0.33333333       0.00000000 </v>
   <v>       0.33333333       0.33333333       0.00000000 </v>
  </varray>
  <varray name="weights" >
   <v>       0.11111111 </v>
   <v>       0.22222222 </v>
   <v>       0.22222222 </v>
   <v>       0.44444444 </v>
  </varray>
 </kpoints>
 <parameters>
  <separator name="general" >
   <i type="string" name="SYSTEM">unknown system</i>
   <i type="logical" name="LCOMPAT"> F  </i>
  </separator>
  <separator name="electronic" >
   <i type="string" name="PREC">normal</i>
   <i name="ENMAX">    400.00000000</i>
   <i name="ENAUG">    586.98000000</i>
   <i name="EDIFF">      0.00020000</i>
   <i type="int" name="IALGO">    38</i>
   <i type="int" name="IWAVPR">    11</i>
   <i type="int" name="NBANDS">    60</i>
   <i type="int" name="NBANDSLOW">    -1</i>
   <i type="int" name="NBANDSHIGH">    -1</i>
   <i name="NELECT">     90.00000000</i>
   <i type="int" name="TURBO">     0</i>
   <i type="int" name="IRESTART">     0</i>
   <i type="int" name="NREBOOT">     0</i>
   <i type="int" name="NMIN">     0</i>
   <i name="EREF">      0.00000000</i>
   <separator name="electronic smearing" >
    <i type="int" name="ISMEAR">     1</i>
    <i name="SIGMA">      0.20000000</i>
    <i name="KSPACING">      0.50000000</i>
    <i type="logical" name="KGAMMA"> T  </i>
    <i type="logical" name="KBLOWUP"> T  </i>
   </separator>
   <separator name="electronic projectors" >
    <i type="logical" name="LREAL"> F  </i>
    <v name="ROPT">      0.00000000      0.00000000</v>
    <i type="int" name="LMAXPAW">  -100</i>
    <i type="int" name="LMAXMIX">     2</i>
    <i type="logical" name="NLSPLINE"> F  </i>
   </separator>
   <separator name="electronic startup" >
    <i type="int" name="ISTART">     0</i>
    <i type="int" name="ICHARG">     2</i>
    <i type="int" name="INIWAV">     1</i>
   </separator>
   <separator name="electronic spin" >
    <i type="int" name="ISPIN">     2</i>
    <i type="logical" name="LNONCOLLINEAR"> F  </i>
    <v name="MAGMOM">      1.00000000      1.00000000      1.00000000      1.00000000      1.00000000      1.00000000      1.00000000      1.00000000      1.00000000      1.00000000</v>
    <i name="NUPDOWN">     -1.00000000</i>
    <i type="logical" name="LSORBIT"> F  </i>
    <v name="SAXIS">      0.00000000      0.00000000      1.00000000</v>
    <i type="logical" name="LSPIRAL"> F  </i>
    <v name="QSPIRAL">      0.00000000      0.00000000      0.00000000</v>
    <i type="logical" name="LZEROZ"> F  </i>
   </separator>
   <separator name="electronic exchange-correlation" >
    <i type="logical" name="LASPH"> F  </i>
    <i type="logical" name="LMETAGGA"> F  </i>
   </separator>
   <separator name="electronic convergence" >
    <i type="int" name="NELM">    60</i>
    <i type="int" name="NELMDL">    -5</i>
    <i type="int" name="NELMIN">     2</i>
    <i name="ENINI">    400.00000000</i>
    <separator name="electronic convergence detail" >
     <i type="logical" name="LDIAG"> T  </i>
     <i type="logical" name="LSUBROT"> F  </i>
     <i name="WEIMIN">      0.00100000</i>
     <i name="EBREAK">      0.00000083</i>
     <i name="DEPER">      0.30000000</i>
     <i type="int" name="NRMM">     4</i>
     <i name="TIME">      0.40000000</i>
    </separator>
   </separator>
   <separator name="electronic mixer" >
    <i name="AMIX">      0.40000000</i>
    <i name="BMIX">      1.00000000</i>
    <i name="AMIN">      0.10000000</i>
    <i name="AMIX_MAG">      1.60000000</i>
    <i name="BMIX_MAG">      1.00000000</i>
    <separator name="electronic mixer details" >
     <i type="int" name="IMIX">     4</i>
     <i type="logical" name="MIXFIRST"> F  </i>
     <i type="int" name="MAXMIX">   -45</i>
     <i name="WC">    100.00000000</i>
     <i type="int" name="INIMIX">     1</i>
     <i type="int" name="MIXPRE">     1</i>
     <i type="int" name="MREMOVE">     5</i>
    </separator>
   </separator>
   <separator name="electronic dipolcorrection" >
    <i type="logical" name="LDIPOL"> F  </i>
    <i type="logical" name="LMONO"> F  </i>
    <i type="int" name="IDIPOL">     0</i>
    <i name="EPSILON">      1.00000000</i>
    <v name="DIPOL">   -100.00000000   -100.00000000   -100.00000000</v>
    <i name="EFIELD">      0.00000000</i>
   </separator>
  </separator>
  <separator name="grids" >
   <i type="int" name="NGX">    18</i>
   <i type="int" name="NGY">    14</i>
   <i type="int" name="NGZ">   120</i>
   <i type="int" name="NGXF">    36</i>
   <i type="int" name="NGYF">    28</i>
   <i type="int" name="NGZF">   240</i>
   <i type="logical" name="ADDGRID"> F  </i>
  </separator>
  <separator name="ionic" >
   <i type="int" name="NSW">   800</i>
   <i type="int" name="IBRION">     2</i>
   <i type="int" name="MDALGO">     0</i>
   <i type="int" name="ISIF">     2</i>
   <i name="PSTRESS">      0.00000000</i>
   <i name="EDIFFG">     -0.03000000</i>
   <i type="int" name="NFREE">     1</i>
   <i name="POTIM">      0.50000000</i>
   <i name="SMASS">     -3.00000000</i>
   <i name="SCALEE">      1.00000000</i>
  </separator>
  <separator name="ionic md" >
   <i name="TEBEG">      0.00010000</i>
   <i name="TEEND">      0.00010000</i>
   <i type="int" name="NBLOCK">     1</i>
   <i type="int" name="KBLOCK">   800</i>
   <i type="int" name="NPACO">   256</i>
   <i name="APACO">     10.00000000</i>
  </separator>
  <separator name="symmetry" >
   <i type="int" name="ISYM">     1</i>
   <i name="SYMPREC">      0.00001000</i>
  </separator>
  <separator name="dos" >
   <i type="int" name="LORBIT">     0</i>
   <v name="RWIGS">     -1.00000000     -1.00000000</v>
   <i type="int" name="NEDOS">   301</i>
   <i name="EMIN">     10.00000000</i>
   <i name="EMAX">    -10.00000000</i>
   <i name="EFERMI">      0.00000000</i>
  </separator>
  <separator name="writing" >
   <i type="int" name="NWRITE">     2</i>
   <i type="logical" name="LWAVE"> F  </i>
   <i type="logical" name="LDOWNSAMPLE"> F  </i>
   <i type="logical" name="LCHARG"> F  </i>
   <i type="logical" name="LPARD"> F  </i>
   <i type="logical" name="LVTOT"> F  </i>
   <i type="logical" name="LVHAR"> F  </i>
   <i type="logical" name="LELF"> F  </i>
   <i type="logical" name="LOPTICS"> F  </i>
   <v name="STM">      0.00000000      0.00000000      0.00000000      0.00000000      0.00000000      0.00000000      0.00000000</v>
  </separator>
  <separator name="performance" >
   <i type="int" name="NPAR">     4</i>
   <i type="int" name="NSIM">     4</i>
   <i type="int" name="NBLK">    -1</i>
   <i type="logical" name="LPLANE"> T  </i>
   <i type="logical" name="LSCALAPACK"> T  </i>
   <i type="logical" name="LSCAAWARE"> F  </i>
   <i type="logical" name="LSCALU"> F  </i>
   <i type="logical" name="LASYNC"> F  </i>
   <i type="logical" name="LORBITALREAL"> F  </i>
  </separator>
  <separator name="miscellaneous" >
   <i type="int" name="IDIOT">     3</i>
   <i type="int" name="PHON_NSTRUCT">    -1</i>
   <i type="logical" name="LMUSIC"> F  </i>
   <v name="POMASS">     63.54600000      1.00000000</v>
   <v name="DARWINR">      0.00000000      0.00000000</v>
   <v name="DARWINV">      1.00000000      1.00000000</v>
   <i type="logical" name="LCORR"> T  </i>
  </separator>
  <i type="logical" name="GGA_COMPAT"> T  </i>
  <i type="logical" name="LBERRY"> F  </i>
  <i type="int" name="ICORELEVEL">     0</i>
  <i type="logical" name="LDAU"> F  </i>
  <i type="int" name="I_CONSTRAINED_M">     0</i>
  <separator name="electronic exchange-correlation" >
   <i type="string" name="GGA">PE</i>
   <i type="int" name="VOSKOWN">     0</i>
   <i type="logical" name="LHFCALC"> F  </i>
   <i type="string" name="PRECFOCK"></i>
   <i type="logical" name="LSYMGRAD"> F  </i>
   <i type="logical" name="LHFONE"> F  </i>
   <i type="logical" name="LRHFCALC"> F  </i>
   <i type="logical" name="LTHOMAS"> F  </i>
   <i type="logical" name="LMODELHF"> F  </i>
   <i type="logical" name="LFOCKACE"> F  </i>
   <i name="ENCUT4O">     -1.00000000</i>
   <i type="int" name="EXXOEP">     0</i>
   <i type="int" name="FOURORBIT">     0</i>
   <i name="AEXX">      0.00000000</i>
   <i name="HFALPHA">      0.00000000</i>
   <i name="MCALPHA">      0.00000000</i>
   <i name="ALDAX">      1.00000000</i>
   <i name="AGGAX">      1.00000000</i>
   <i name="ALDAC">      1.00000000</i>
   <i name="AGGAC">      1.00000000</i>
   <i type="int" name="NKREDX">     1</i>
   <i type="int" name="NKREDY">     1</i>
   <i type="int" name="NKREDZ">     1</i>
   <i type="logical" name="SHIFTRED"> F  </i>
   <i type="logical" name="ODDONLY"> F  </i>
   <i type="logical" name="EVENONLY"> F  </i>
   <i type="int" name="LMAXFOCK">     0</i>
   <i type="int" name="NMAXFOCKAE">     0</i>
   <i type="logical" name="LFOCKAEDFT"> F  </i>
   <i name="HFSCREEN">      0.00000000</i>
   <i name="HFSCREENC">      0.00000000</i>
   <i type="int" name="NBANDSGWLOW">     0</i>
  </separator>
  <separator name="vdW DFT" >
   <i type="logical" name="LUSE_VDW"> F  </i>
   <i name="Zab_VDW">     -0.84910000</i>
   <i name="PARAM1">      0.12340000</i>
   <i name="PARAM2">      1.00000000</i>
   <i name="PARAM3">      0.00000000</i>
  </separator>
  <separator name="model GW" >
   <i type="int" name="MODEL_GW">     0</i>
   <i name="MODEL_EPS0">     13.40810411</i>
   <i name="MODEL_ALPHA">      1.00000000</i>
  </separator>
  <separator name="linear response parameters" >
   <i type="logical" name="LEPSILON"> F  </i>
   <i type="logical" name="LRPA"> F  </i>
   <i type="logical" name="LNABLA"> F  </i>
   <i type="logical" name="LVEL"> F  </i>
   <i name="CSHIFT">      0.10000000</i>
   <i name="OMEGAMAX">     -1.00000000</i>
   <i name="DEG_THRESHOLD">      0.00200000</i>
   <i name="RTIME">     -0.10000000</i>
   <i name="WPLASMAI">      0.00000000</i>
   <v name="DFIELD">      0.00000000      0.00000000      0.00000000</v>
   <v name="WPLASMA">      0.00000000      0.00000000      0.00000000      0.00000000      0.00000000      0.00000000      0.00000000      0.00000000      0.00000000</v>
  </separator>
  <separator name="orbital magnetization" >
   <i type="logical" name="NUCIND"> F  </i>
   <v name="MAGPOS">      0.00000000      0.00000000      0.00000000</v>
   <i type="logical" name="LNICSALL"> T  </i>
   <i type="logical" name="ORBITALMAG"> F  </i>
   <i type="logical" name="LMAGBLOCH"> F  </i>
   <i type="logical" name="LCHIMAG"> F  </i>
   <i type="logical" name="LGAUGE"> T  </i>
   <i type="int" name="MAGATOM">     0</i>
   <v name="MAGDIPOL">      0.00000000      0.00000000      0.00000000</v>
   <v name="AVECCONST">      0.00000000      0.00000000      0.00000000</v>
  </separator>
  <separator name="response functions" >
   <i type="logical" name="LFINITE_TEMPERATURE"> F  </i>
   <i type="logical" name="LADDER"> F  </i>
   <i type="logical" name="LRPAFORCE"> F  </i>
   <i type="logical" name="LFXC"> F  </i>
   <i type="logical" name="LHARTREE"> T  </i>
   <i type="int" name="IBSE">     0</i>
   <v type="int" name="KPOINT">    -1     0     0     0</v>
   <i type="logical" name="LTCTC"> F  </i>
   <i type="logical" name="LTCTE"> F  </i>
   <i type="logical" name="LTETE"> F  </i>
   <i type="logical" name="LTRIPLET"> F  </i>
   <i type="logical" name="LFXCEPS"> F  </i>
   <i type="logical" name="LFXHEG"> F  </i>
   <i type="int" name="NATURALO">     2</i>
   <i type="logical" name="LHOLEGF"> F  </i>
   <i type="logical" name="L2ORDER"> F  </i>
   <i type="logical" name="LDMP1"> F  </i>
   <i type="logical" name="LMP2LT"> F  </i>
   <i type="logical" name="LSMP2LT"> F  </i>
   <i type="logical" name="LGWLF"> F  </i>
   <i name="ENCUTGW">     -2.00000000</i>
   <i name="ENCUTGWSOFT">     -2.00000000</i>
   <i name="ENCUTLF">     -1.00000000</i>
   <i type="logical" name="LESF_SPLINES"> F  </i>
   <i type="int" name="LMAXMP2">    -1</i>
   <i name="SCISSOR">      0.00000000</i>
   <i type="int" name="NOMEGA">     0</i>
   <i type="int" name="NOMEGAR">     0</i>
   <i type="int" name="NBANDSGW">    -1</i>
   <i type="int" name="NBANDSO">    -1</i>
   <i type="int" name="NBANDSV">    -1</i>
   <i type="int" name="NELMGW">     1</i>
   <i type="int" name="NELMHF">     1</i>
   <i type="int" name="DIM">     3</i>
   <i type="int" name="IESPILON">     4</i>
   <i type="int" name="ANTIRES">     0</i>
   <i name="OMEGAMAX">    -30.00000000</i>
   <i name="OMEGAMIN">    -30.00000000</i>
   <i name="OMEGATL">   -200.00000000</i>
   <i type="int" name="OMEGAGRID">     0</i>
   <i name="CSHIFT">     -0.10000000</i>
   <i type="logical" name="LSELFENERGY"> F  </i>
   <i type="logical" name="LSPECTRAL"> F  </i>
   <i type="logical" name="LSPECTRALGW"> F  </i>
   <i type="logical" name="LSINGLES"> F  </i>
   <i type="logical" name="LFERMIGW"> F  </i>
   <i type="logical" name="ODDONLYGW"> F  </i>
   <i type="logical" name="EVENONLYGW"> F  </i>
   <i type="int" name="NKREDLFX">     1</i>
   <i type="int" name="NKREDLFY">     1</i>
   <i type="int" name="NKREDLFZ">     1</i>
   <i type="int" name="MAXMEM">  2800</i>
   <i type="int" name="TELESCOPE">     0</i>
   <i type="int" name="NTAUPAR">    -1</i>
   <i type="int" name="NOMEGAPAR">    -1</i>
   <i name="DAMP_NEWTON">      0.80000001</i>
   <i name="LAMBDA">      1.00000000</i>
  </separator>
  <separator name="External order field" >
   <i name="OFIELD_KAPPA">      0.00000000</i>
   <v name="OFIELD_K">      0.00000000      0.00000000      0.00000000</v>
   <i name="OFIELD_Q6_NEAR">      0.00000000</i>
   <i name="OFIELD_Q6_FAR">      0.00000000</i>
   <i name="OFIELD_A">      0.00000000</i>
  </separator>
  <separator name="optional k-points parameters" >
   <i type="int" name="KPOINTS_OPT_MODE">     1</i>
   <i type="logical" name="LKPOINTS_OPT"> F  </i>
  </separator>
 </parameters>
 <atominfo>
  <atoms>      10 </atoms>
  <types>       2 </types>
  <array name="atoms" >
   <dimension dim="1">ion</dimension>
   <field type="string">element</field>
   <field type="int">atomtype</field>
   <set>
    <rc><c>Cu</c><c>   1</c></rc>
    <rc><c>Cu</c><c>   1</c></rc>
    <rc><c>Cu</c><c>   1</c></rc>
    <rc><c>Cu</c><c>   1</c></rc>
    <rc><c>Cu</c><c>   1</c></rc>
    <rc><c>Cu</c><c>   1</c></rc>
    <rc><c>Cu</c><c>   1</c></rc>
    <rc><c>Cu</c><c>   1</c></rc>
    <rc><c>H </c><c>   2</c></rc>
    <rc><c>H </c><c>   2</c></rc>
   </set>
  </array>
  <array name="atomtypes" >
   <dimension dim="1">type</dimension>
   <field type="int">atomspertype</field>
   <field type="string">element</field>
   <field>mass</field>
   <field>valence</field>
   <field type="string">pseudopotential</field>
   <set>
    <rc><c>   8</c><c>Cu</c><c>     63.54600000</c><c>     11.00000000</c><c>  PAW_PBE Cu 22Jun2005                  </c></rc>
    <rc><c>   2</c><c>H </c><c>      1.00000000</c><c>      1.00000000</c><c>  PAW_PBE H 15Jun2001                   </c></rc>
   </set>
  </array>
 </atominfo>
 <structure name="initialpos" >
  <crystal>
   <varray name="basis" >
    <v>       3.63000011       0.00000000       0.00000000 </v>
    <v>       0.00000000       2.56679773       0.00000000 </v>
    <v>       0.00000000       0.00000000      23.98379135 </v>
   </varray>
   <i name="volume">    223.46840188 </i>
   <varray name="rec_basis" >
    <v>       0.27548208       0.00000000       0.00000000 </v>
    <v>       0.00000000       0.38959050       0.00000000 </v>
    <v>       0.00000000       0.00000000       0.04169483 </v>
   </varray>
  </crystal>
  <varray name="positions" >
   <v>       0.00000000       0.00000000       0.00000000 </v>
   <v>       0.50000000       0.50000000       0.05351109 </v>
   <v>       0.00000000       0.00000000       0.10468148 </v>
   <v>       0.50000000       0.50000000       0.15792996 </v>
   <v>       0.00000000       0.00000000       0.21070899 </v>
   <v>       0.50000000       0.50000000       0.26289048 </v>
   <v>       0.00000000       0.00000000       0.31711592 </v>
   <v>       0.50000000       0.50000000       0.36467590 </v>
   <v>       1.00000000       0.50000000       0.42690792 </v>
   <v>       1.00000000       0.79063451       0.42690792 </v>
  </varray>
 </structure>
 <calculation>
  <scstep>
   <time name="dav">    0.32    0.32</time>
   <time name="total">    0.34    0.35</time>
   <energy>
    <i name="alphaZ">    216.17040255 </i>
    <i name="ewald">  42501.49545577 </i>
    <i name="hartreedc"> -53324.08200045 </i>
    <i name="XCdc">    371.45181674 </i>
    <i name="pawpsdc">   9828.36862813 </i>
    <i name="pawaedc"> -10674.97285505 </i>
    <i name="eentropy">     -0.00215784 </i>
    <i name="bandstr">    700.75480914 </i>
    <i name="atom">  11152.61838693 </i>
    <i name="e_fr_energy">    771.80248592 </i>
    <i name="e_wo_entrp">    771.80464376 </i>
    <i name="e_0_energy">    771.80320520 </i>
   </energy>
  </scstep>
  <scstep>
   <time name="dav">    0.31    0.31</time>
   <time name="total">    0.31    0.31</time>
   <energy>
    <i name="e_fr_energy">     58.35680068 </i>
    <i name="e_wo_entrp">     58.38650411 </i>
    <i name="e_0_energy">     58.36670182 </i>
   </energy>
  </scstep>
  <scstep>
   <time name="dav">    0.31    0.31</time>
   <time name="total">    0.31    0.31</time>
   <energy>
    <i name="e_fr_energy">    -30.95771101 </i>
    <i name="e_wo_entrp">    -30.94677207 </i>
    <i name="e_0_energy">    -30.95406469 </i>
   </energy>
  </scstep>
  <scstep>
   <time name="dav">    0.35    0.35</time>
   <time name="total">    0.35    0.36</time>
   <energy>
    <i name="e_fr_energy">    -34.66846984 </i>
    <i name="e_wo_entrp">    -34.65634048 </i>
    <i name="e_0_energy">    -34.66442672 </i>
   </energy>
  </scstep>
  <scstep>
   <time name="dav">    0.35    0.35</time>
   <time name="total">    0.41    0.41</time>
   <energy>
    <i name="e_fr_energy">    -34.75175042 </i>
    <i name="e_wo_entrp">    -34.73972648 </i>
    <i name="e_0_energy">    -34.74774244 </i>
   </energy>
  </scstep>
  <scstep>
   <time name="dav">    0.33    0.33</time>
   <time name="total">    0.41    0.41</time>
   <energy>
    <i name="e_fr_energy">    -29.54911698 </i>
    <i name="e_wo_entrp">    -29.54000638 </i>
    <i name="e_0_energy">    -29.54608011 </i>
   </energy>
  </scstep>
  <scstep>
   <time name="dav">    0.35    0.35</time>
   <time name="total">    0.42    0.42</time>
   <energy>
    <i name="e_fr_energy">    -27.45389769 </i>
    <i name="e_wo_entrp">    -27.44427411 </i>
    <i name="e_0_energy">    -27.45068983 </i>
   </energy>
  </scstep>
  <scstep>
   <time name="dav">    0.39    0.39</time>
   <time name="total">    0.46    0.47</time>
   <energy>
    <i name="e_fr_energy">    -27.04161555 </i>
    <i name="e_wo_entrp">    -27.03481820 </i>
    <i name="e_0_energy">    -27.03934977 </i>
   </energy>
  </scstep>
  <scstep>
   <time name="dav">    0.46    0.47</time>
   <time name="total">    0.54    0.54</time>
   <energy>
    <i name="e_fr_energy">    -26.56526913 </i>
    <i name="e_wo_entrp">    -26.54663201 </i>
    <i name="e_0_energy">    -26.55905676 </i>
   </energy>
  </scstep>
  <scstep>
   <time name="dav">    0.38    0.39</time>
   <time name="total">    0.46    0.47</time>
   <energy>
    <i name="e_fr_energy">    -27.09531716 </i>
    <i name="e_wo_entrp">    -27.07605790 </i>
    <i name="e_0_energy">    -27.08889741 </i>
   </energy>
  </scstep>
  <scstep>
   <time name="dav">    0.37    0.38</time>
   <time name="total">    0.45    0.45</time>
   <energy>
    <i name="e_fr_energy">    -28.72725486 </i>
    <i name="e_wo_entrp">    -28.71519572 </i>
    <i name="e_0_energy">    -28.72323515 </i>
   </energy>
  </scstep>
  <scstep>
   <time name="dav">    0.35    0.35</time>
   <time name="total">    0.42    0.43</time>
   <energy>
    <i name="e_fr_energy">    -29.64232763 </i>
    <i name="e_wo_entrp">    -29.63727147 </i>
    <i name="e_0_energy">    -29.64064225 </i>
   </energy>
  </scstep>
  <scstep>
   <time name="dav">    0.38    0.38</time>
   <time name="total">    0.46    0.46</time>
   <energy>
    <i name="e_fr_energy">    -31.64471379 </i>
    <i name="e_wo_entrp">    -31.62846827 </i>
    <i name="e_0_energy">    -31.63929861 </i>
   </energy>
  </scstep>
  <scstep>
   <time name="dav">    0.36    0.36</time>
   <time name="total">    0.44    0.44</time>
   <energy>
    <i name="e_fr_energy">    -33.58779269 </i>
    <i name="e_wo_entrp">    -33.57948415 </i>
    <i name="e_0_energy">    -33.58502318 </i>
   </energy>
  </scstep>
  <scstep>
   <time name="dav">    0.35    0.35</time>
   <time name="total">    0.42    0.43</time>
   <energy>
    <i name="e_fr_energy">    -34.14984265 </i>
    <i name="e_wo_entrp">    -34.14960797 </i>
    <i name="e_0_energy">    -34.14976442 </i>
   </energy>
  </scstep>
  <scstep>
   <time name="dav">    0.36    0.36</time>
   <time name="total">    0.44    0.44</time>
   <energy>
    <i name="e_fr_energy">    -34.36999370 </i>
    <i name="e_wo_entrp">    -34.37452299 </i>
    <i name="e_0_energy">    -34.37150347 </i>
   </energy>
  </scstep>
  <scstep>
   <time name="dav">    0.36    0.36</time>
   <time name="total">    0.44    0.44</time>
   <energy>
    <i name="e_fr_energy">    -34.54550008 </i>
    <i name="e_wo_entrp">    -34.55401673 </i>
    <i name="e_0_energy">    -34.54833896 </i>
   </energy>
  </scstep>
  <scstep>
   <time name="dav">    0.34    0.35</time>
   <time name="total">    0.42    0.42</time>
   <energy>
    <i name="e_fr_energy">    -34.60522525 </i>
    <i name="e_wo_entrp">    -34.61541432 </i>
    <i name="e_0_energy">    -34.60862160 </i>
   </energy>
  </scstep>
  <scstep>
   <time name="dav">    0.35    0.35</time>
   <time name="total">    0.42    0.42</time>
   <energy>
    <i name="e_fr_energy">    -34.70088587 </i>
    <i name="e_wo_entrp">    -34.71188937 </i>
    <i name="e_0_energy">    -34.70455370 </i>
   </energy>
  </scstep>
  <scstep>
   <time name="dav">    0.35    0.35</time>
   <time name="total">    0.42    0.43</time>
   <energy>
    <i name="e_fr_energy">    -34.74057717 </i>
    <i name="e_wo_entrp">    -34.75187868 </i>
    <i name="e_0_energy">    -34.74434434 </i>
   </energy>
  </scstep>
  <scstep>
   <time name="dav">    0.34    0.35</time>
   <time name="total">    0.42    0.42</time>
   <energy>
    <i name="e_fr_energy">    -34.77638703 </i>
    <i name="e_wo_entrp">    -34.78775431 </i>
    <i name="e_0_energy">    -34.78017612 </i>
   </energy>
  </scstep>
  <scstep>
   <time name="dav">    0.31    0.31</time>
   <time name="total">    0.39    0.39</time>
   <energy>
    <i name="e_fr_energy">    -34.82899422 </i>
    <i name="e_wo_entrp">    -34.84033397 </i>
    <i name="e_0_energy">    -34.83277414 </i>
   </energy>
  </scstep>
  <scstep>
   <time name="dav">    0.31    0.31</time>
   <time name="total">    0.38    0.39</time>
   <energy>
    <i name="e_fr_energy">    -34.87741076 </i>
    <i name="e_wo_entrp">    -34.88855043 </i>
    <i name="e_0_energy">    -34.88112399 </i>
   </energy>
  </scstep>
  <scstep>
   <time name="dav">    0.29    0.30</time>
   <time name="total">    0.37    0.37</time>
   <energy>
    <i name="e_fr_energy">    -34.90866529 </i>
    <i name="e_wo_entrp">    -34.91970871 </i>
    <i name="e_0_energy">    -34.91234643 </i>
   </energy>
  </scstep>
  <scstep>
   <time name="dav">    0.27    0.27</time>
   <time name="total">    0.35    0.35</time>
   <energy>
    <i name="e_fr_energy">    -34.92373480 </i>
    <i name="e_wo_entrp">    -34.93464641 </i>
    <i name="e_0_energy">    -34.92737200 </i>
   </energy>
  </scstep>
  <scstep>
   <time name="dav">    0.28    0.28</time>
   <time name="total">    0.36    0.37</time>
   <energy>
    <i name="e_fr_energy">    -34.92884723 </i>
    <i name="e_wo_entrp">    -34.93974083 </i>
    <i name="e_0_energy">    -34.93247843 </i>
   </energy>
  </scstep>
  <scstep>
   <time name="dav">    0.25    0.25</time>
   <time name="total">    0.33    0.33</time>
   <energy>
    <i name="e_fr_energy">    -34.92927535 </i>
    <i name="e_wo_entrp">    -34.94009070 </i>
    <i name="e_0_energy">    -34.93288046 </i>
   </energy>
  </scstep>
  <scstep>
   <time name="dav">    0.25    0.25</time>
   <time name="total">    0.27    0.27</time>
   <energy>
    <i name="alphaZ">    216.17040255 </i>
    <i name="ewald">  42501.49545577 </i>
    <i name="hartreedc"> -53251.31953233 </i>
    <i name="XCdc">    362.29844990 </i>
    <i name="pawpsdc">  10509.12911434 </i>
    <i name="pawaedc"> -11370.80818314 </i>
    <i name="eentropy">      0.01077523 </i>
    <i name="bandstr">   -154.52428866 </i>
    <i name="atom">  11152.61838693 </i>
    <i name="e_fr_energy">    -34.92941943 </i>
    <i name="e_wo_entrp">    -34.94019465 </i>
    <i name="e_0_energy">    -34.93301117 </i>
   </energy>
  </scstep>
  <structure>
   <crystal>
    <varray name="basis" >
     <v>       3.63000011       0.00000000       0.00000000 </v>
     <v>       0.00000000       2.56679773       0.00000000 </v>
     <v>       0.00000000       0.00000000      23.98379135 </v>
    </varray>
    <i name="volume">    223.46840188 </i>
    <varray name="rec_basis" >
     <v>       0.27548208       0.00000000       0.00000000 </v>
     <v>       0.00000000       0.38959050       0.00000000 </v>
     <v>       0.00000000       0.00000000       0.04169483 </v>
    </varray>
   </crystal>
   <varray name="positions" >
    <v>       0.00000000       0.00000000       0.00000000 </v>
    <v>       0.50000000       0.50000000       0.05351109 </v>
    <v>       0.00000000       0.00000000       0.10468148 </v>
    <v>       0.50000000       0.50000000       0.15792996 </v>
    <v>       0.00000000       0.00000000       0.21070899 </v>
    <v>       0.50000000       0.50000000       0.26289048 </v>
    <v>       0.00000000       0.00000000       0.31711592 </v>
    <v>       0.50000000       0.50000000       0.36467590 </v>
    <v>       1.00000000       0.50000000       0.42690792 </v>
    <v>       1.00000000       0.79063451       0.42690792 </v>
   </varray>
  </structure>
  <varray name="forces" >
   <v>       0.00000000       0.00017602       0.50820177 </v>
   <v>       0.00000000       0.00025731      -0.45160111 </v>
   <v>       0.00000000      -0.00226307      -0.02171512 </v>
   <v>       0.00000000       0.00252854       0.09603728 </v>
   <v>       0.00000000      -0.00029583      -0.14318142 </v>
   <v>       0.00000000      -0.00891994      -0.01874167 </v>
   <v>       0.00000000       0.04897406      -0.24260390 </v>
   <v>       0.00000000       0.03823130      -0.38069244 </v>
   <v>       0.00000000      -0.64420878       0.35068661 </v>
   <v>       0.00000000       0.56552040       0.30361000 </v>
  </varray>
  <varray name="stress" >
   <v>     -35.70328372       0.00000000       0.00000000 </v>
   <v>       0.00000000     -28.11735804      -1.10175502 </v>
   <v>       0.00000000      -1.10175520      -1.40491535 </v>
  </varray>
  <energy>
   <i name="e_fr_energy">    -38.19607464 </i>
   <i name="e_wo_entrp">    -38.20684987 </i>
   <i name="e_0_energy">    -38.19966639 </i>
  </energy>
  <time name="totalsc">   11.70   11.85</time>
 </calculation>
 <calculation>
  <scstep>
   <time name="dav">    0.31    0.32</time>
   <time name="total">    0.39    0.39</time>
   <energy>
    <i name="alphaZ">    216.17040255 </i>
    <i name="ewald">  42649.62170536 </i>
    <i name="hartreedc"> -53400.28747246 </i>
    <i name="XCdc">    362.30663619 </i>
    <i name="pawpsdc">  10509.11898198 </i>
    <i name="pawaedc"> -11370.79567153 </i>
    <i name="eentropy">      0.01341352 </i>
    <i name="bandstr">   -153.69887310 </i>
    <i name="atom">  11152.61838693 </i>
    <i name="e_fr_energy">    -34.93249057 </i>
    <i name="e_wo_entrp">    -34.94590409 </i>
    <i name="e_0_energy">    -34.93696174 </i>
   </energy>
  </scstep>
  <scstep>
   <time name="dav">    0.39    0.40</time>
   <time name="total">    0.47    0.48</time>
   <energy>
    <i name="e_fr_energy">    -34.94783894 </i>
    <i name="e_wo_entrp">    -34.96039786 </i>
    <i name="e_0_energy">    -34.95202525 </i>
   </energy>
  </scstep>
  <scstep>
   <time name="dav">    0.34    0.35</time>
   <time name="total">    0.42    0.43</time>
   <energy>
    <i name="e_fr_energy">    -34.94617080 </i>
    <i name="e_wo_entrp">    -34.95950957 </i>
    <i name="e_0_energy">    -34.95061706 </i>
   </energy>
  </scstep>
  <scstep>
   <time name="dav">    0.33    0.34</time>
   <time name="total">    0.41    0.41</time>
   <energy>
    <i name="e_fr_energy">    -34.94539022 </i>
    <i name="e_wo_entrp">    -34.95827109 </i>
    <i name="e_0_energy">    -34.94968384 </i>
   </energy>
  </scstep>
  <scstep>
   <time name="dav">    0.46    0.46</time>
   <time name="total">    0.54    0.54</time>
   <energy>
    <i name="e_fr_energy">    -34.94535360 </i>
    <i name="e_wo_entrp">    -34.95869281 </i>
    <i name="e_0_energy">    -34.94980000 </i>
   </energy>
  </scstep>
  <scstep>
   <time name="dav">    0.31    0.32</time>
   <time name="total">    0.39    0.39</time>
   <energy>
    <i name="e_fr_energy">    -34.94515914 </i>
    <i name="e_wo_entrp">    -34.95825937 </i>
    <i name="e_0_energy">    -34.94952588 </i>
   </energy>
  </scstep>
  <scstep>
   <time name="dav">    0.28    0.28</time>
   <time name="total">    0.30    0.31</time>
   <energy>
    <i name="alphaZ">    216.17040255 </i>
    <i name="ewald">  42649.62170536 </i>
    <i name="hartreedc"> -53399.13065727 </i>
    <i name="XCdc">    362.21455359 </i>
    <i name="pawpsdc">  10513.14471724 </i>
    <i name="pawaedc"> -11374.93092549 </i>
    <i name="eentropy">      0.01317980 </i>
    <i name="bandstr">   -154.66653187 </i>
    <i name="atom">  11152.61838693 </i>
    <i name="e_fr_energy">    -34.94516917 </i>
    <i name="e_wo_entrp">    -34.95834897 </i>
    <i name="e_0_energy">    -34.94956244 </i>
   </energy>
  </scstep>
  <structure>
   <crystal>
    <varray name="basis" >
     <v>       3.63000011       0.00000000       0.00000000 </v>
     <v>       0.00000000       2.56679773       0.00000000 </v>
     <v>       0.00000000       0.00000000      23.98379135 </v>
    </varray>
    <i name="volume">    223.46840188 </i>
    <varray name="rec_basis" >
     <v>       0.27548208       0.00000000       0.00000000 </v>
     <v>       0.00000000       0.38959050       0.00000000 </v>
     <v>       0.00000000       0.00000000       0.04169483 </v>
    </varray>
   </crystal>
   <varray name="positions" >
    <v>       0.00000000       0.00000331       0.00102223 </v>
    <v>       0.50000000       0.50000484       0.05260271 </v>
    <v>       0.00000000      -0.00004253       0.10463780 </v>
    <v>       0.50000000       0.50004752       0.15812313 </v>
    <v>       0.00000000      -0.00000556       0.21042099 </v>
    <v>       0.50000000       0.49983235       0.26285278 </v>
    <v>       0.00000000       0.00092046       0.31662793 </v>
    <v>       0.50000000       0.50071855       0.36391015 </v>
    <v>       1.00000000       0.48789217       0.42761332 </v>
    <v>       1.00000000       0.80126340       0.42751862 </v>
   </varray>
  </structure>
  <varray name="forces" >
   <v>       0.00000000       0.00061257       0.33550397 </v>
   <v>       0.00000000       0.00037490      -0.26114488 </v>
   <v>       0.00000000      -0.00111848       0.00206098 </v>
   <v>       0.00000000       0.00211068      -0.00910643 </v>
   <v>       0.00000000      -0.00045548      -0.12194645 </v>
   <v>       0.00000000      -0.00315401      -0.08599049 </v>
   <v>       0.00000000       0.03910515      -0.19064576 </v>
   <v>       0.00000000       0.03577838      -0.26815515 </v>
   <v>       0.00000000       0.65140346       0.32197602 </v>
   <v>       0.00000000      -0.72465717       0.27744819 </v>
  </varray>
  <varray name="stress" >
   <v>     -34.59112562       0.00000000       0.00000000 </v>
   <v>       0.00000000     -34.97201165      -1.03860111 </v>
   <v>       0.00000000      -1.03860112       0.31320467 </v>
  </varray>
  <energy>
   <i name="e_fr_energy">    -38.22608348 </i>
   <i name="e_wo_entrp">    -38.23926328 </i>
   <i name="e_0_energy">    -38.23047675 </i>
  </energy>
  <time name="totalsc">    3.42    3.50</time>
 </calculation>
 <calculation>
  <scstep>
   <time name="dav">    0.33    0.33</time>
   <time name="total">    0.40    0.41</time>
   <energy>
    <i name="alphaZ">    216.17040255 </i>
    <i name="ewald">  42628.57478867 </i>
    <i name="hartreedc"> -53377.92640228 </i>
    <i name="XCdc">    362.21287766 </i>
    <i name="pawpsdc">  10513.20263951 </i>
    <i name="pawaedc"> -11374.98825019 </i>
    <i name="eentropy">      0.01278447 </i>
    <i name="bandstr">   -154.82612335 </i>
    <i name="atom">  11152.61838693 </i>
    <i name="e_fr_energy">    -34.94889603 </i>
    <i name="e_wo_entrp">    -34.96168050 </i>
    <i name="e_0_energy">    -34.95315752 </i>
   </energy>
  </scstep>
  <scstep>
   <time name="dav">    0.39    0.39</time>
   <time name="total">    0.47    0.47</time>
   <energy>
    <i name="e_fr_energy">    -34.94920179 </i>
    <i name="e_wo_entrp">    -34.96206318 </i>
    <i name="e_0_energy">    -34.95348892 </i>
   </energy>
  </scstep>
  <scstep>
   <time name="dav">    0.26    0.26</time>
   <time name="total">    0.28    0.29</time>
   <energy>
    <i name="alphaZ">    216.17040255 </i>
    <i name="ewald">  42628.57478867 </i>
    <i name="hartreedc"> -53377.89839280 </i>
    <i name="XCdc">    362.22271444 </i>
    <i name="pawpsdc">  10512.94742428 </i>
    <i name="pawaedc"> -11374.74793365 </i>
    <i name="eentropy">      0.01279284 </i>
    <i name="bandstr">   -154.84936328 </i>
    <i name="atom">  11152.61838693 </i>
    <i name="e_fr_energy">    -34.94918002 </i>
    <i name="e_wo_entrp">    -34.96197286 </i>
    <i name="e_0_energy">    -34.95344430 </i>
   </energy>
  </scstep>
  <structure>
   <crystal>
    <varray name="basis" >
     <v>       3.63000011       0.00000000       0.00000000 </v>
     <v>       0.00000000       2.56679773       0.00000000 </v>
     <v>       0.00000000       0.00000000      23.98379135 </v>
    </varray>
    <i name="volume">    223.46840188 </i>
    <varray name="rec_basis" >
     <v>       0.27548208       0.00000000       0.00000000 </v>
     <v>       0.00000000       0.38959050       0.00000000 </v>
     <v>       0.00000000       0.00000000       0.04169483 </v>
    </varray>
   </crystal>
   <varray name="positions" >
    <v>       0.00000000       0.00000284       0.00087716 </v>
    <v>       0.50000000       0.50000415       0.05273163 </v>
    <v>       0.00000000      -0.00003650       0.10464400 </v>
    <v>       0.50000000       0.50004078       0.15809572 </v>
    <v>       0.00000000      -0.00000477       0.21046186 </v>
    <v>       0.50000000       0.49985614       0.26285813 </v>
    <v>       0.00000000       0.00078983       0.31669718 </v>
    <v>       0.50000000       0.50061658       0.36401883 </v>
    <v>       1.00000000       0.48961051       0.42751321 </v>
    <v>       1.00000000       0.79975495       0.42743195 </v>
   </varray>
  </structure>
  <varray name="forces" >
   <v>       0.00000000       0.00018251       0.38908282 </v>
   <v>       0.00000000       0.00001688      -0.30049526 </v>
   <v>       0.00000000      -0.00189361       0.00005852 </v>
   <v>       0.00000000       0.00190940       0.01495876 </v>
   <v>       0.00000000      -0.00087089      -0.13012381 </v>
   <v>       0.00000000      -0.00547613      -0.07565555 </v>
   <v>       0.00000000       0.04283233      -0.21566024 </v>
   <v>       0.00000000       0.03792907      -0.29798901 </v>
   <v>       0.00000000       0.55985777       0.33047489 </v>
   <v>       0.00000000      -0.63448732       0.28534887 </v>
  </varray>
  <varray name="stress" >
   <v>     -33.97570914       0.00000000       0.00000000 </v>
   <v>       0.00000000     -33.69866025      -1.05667820 </v>
   <v>       0.00000000      -1.05667820       0.71014717 </v>
  </varray>
  <energy>
   <i name="e_fr_energy">    -38.22670313 </i>
   <i name="e_wo_entrp">    -38.23949597 </i>
   <i name="e_0_energy">    -38.23096741 </i>
  </energy>
  <time name="totalsc">    1.65    1.68</time>
 </calculation>
 <calculation>
  <scstep>
   <time name="dav">    0.32    0.32</time>
   <time name="total">    0.40    0.40</time>
   <energy>
    <i name="alphaZ">    216.17040255 </i>
    <i name="ewald">  42799.03479717 </i>
    <i name="hartreedc"> -53547.94106848 </i>
    <i name="XCdc">    362.29314251 </i>
    <i name="pawpsdc">  10512.89768452 </i>
    <i name="pawaedc"> -11374.70599870 </i>
    <i name="eentropy">      0.01418729 </i>
    <i name="bandstr">   -155.34663417 </i>
    <i name="atom">  11152.61838693 </i>
    <i name="e_fr_energy">    -34.96510039 </i>
    <i name="e_wo_entrp">    -34.97928768 </i>
    <i name="e_0_energy">    -34.96982948 </i>
   </energy>
  </scstep>
  <scstep>
   <time name="dav">    0.39    0.39</time>
   <time name="total">    0.46    0.47</time>
   <energy>
    <i name="e_fr_energy">    -34.98441748 </i>
    <i name="e_wo_entrp">    -34.99854994 </i>
    <i name="e_0_energy">    -34.98912830 </i>
   </energy>
  </scstep>
  <scstep>
   <time name="dav">    0.33    0.33</time>
   <time name="total">    0.41    0.41</time>
   <energy>
    <i name="e_fr_energy">    -34.98319962 </i>
    <i name="e_wo_entrp">    -34.99727675 </i>
    <i name="e_0_energy">    -34.98789199 </i>
   </energy>
  </scstep>
  <scstep>
   <time name="dav">    0.34    0.34</time>
   <time name="total">    0.41    0.42</time>
   <energy>
    <i name="e_fr_energy">    -34.98303938 </i>
    <i name="e_wo_entrp">    -34.99727848 </i>
    <i name="e_0_energy">    -34.98778574 </i>
   </energy>
  </scstep>
  <scstep>
   <time name="dav">    0.34    0.34</time>
   <time name="total">    0.42    0.42</time>
   <energy>
    <i name="e_fr_energy">    -34.98283598 </i>
    <i name="e_wo_entrp">    -34.99697526 </i>
    <i name="e_0_energy">    -34.98754907 </i>
   </energy>
  </scstep>
  <scstep>
   <time name="dav">    0.31    0.31</time>
   <time name="total">    0.38    0.39</time>
   <energy>
    <i name="e_fr_energy">    -34.98277888 </i>
    <i name="e_wo_entrp">    -34.99723071 </i>
    <i name="e_0_energy">    -34.98759615 </i>
   </energy>
  </scstep>
  <scstep>
   <time name="dav">    0.23    0.24</time>
   <time name="total">    0.26    0.26</time>
   <energy>
    <i name="alphaZ">    216.17040255 </i>
    <i name="ewald">  42799.03479717 </i>
    <i name="hartreedc"> -53547.09248138 </i>
    <i name="XCdc">    362.28244415 </i>
    <i name="pawpsdc">  10523.19365721 </i>
    <i name="pawaedc"> -11385.17739645 </i>
    <i name="eentropy">      0.01430569 </i>
    <i name="bandstr">   -156.02685700 </i>
    <i name="atom">  11152.61838693 </i>
    <i name="e_fr_energy">    -34.98274114 </i>
    <i name="e_wo_entrp">    -34.99704683 </i>
    <i name="e_0_energy">    -34.98750971 </i>
   </energy>
  </scstep>
  <structure>
   <crystal>
    <varray name="basis" >
     <v>       3.63000011       0.00000000       0.00000000 </v>
     <v>       0.00000000       2.56679773       0.00000000 </v>
     <v>       0.00000000       0.00000000      23.98379135 </v>
    </varray>
    <i name="volume">    223.46840188 </i>
    <varray name="rec_basis" >
     <v>       0.27548208       0.00000000       0.00000000 </v>
     <v>       0.00000000       0.38959050       0.00000000 </v>
     <v>       0.00000000       0.00000000       0.04169483 </v>
    </varray>
   </crystal>
   <varray name="positions" >
    <v>       0.00000000       0.00000696       0.00196204 </v>
    <v>       0.50000000       0.50000697       0.05182971 </v>
    <v>       0.00000000      -0.00008370       0.10462055 </v>
    <v>       0.50000000       0.50009088       0.15822032 </v>
    <v>       0.00000000      -0.00001894       0.21012805 </v>
    <v>       0.50000000       0.49969558       0.26273395 </v>
    <v>       0.00000000       0.00183518       0.31613820 </v>
    <v>       0.50000000       0.50149025       0.36319718 </v>
    <v>       1.00000000       0.49027084       0.42834694 </v>
    <v>       1.00000000       0.79734049       0.42815272 </v>
   </varray>
  </structure>
  <varray name="forces" >
   <v>       0.00000000       0.00039918       0.20260567 </v>
   <v>       0.00000000      -0.00017878      -0.11227781 </v>
   <v>       0.00000000      -0.00094043       0.03001200 </v>
   <v>       0.00000000       0.00079700      -0.07681699 </v>
   <v>       0.00000000      -0.00109455      -0.10690865 </v>
   <v>       0.00000000       0.00115173      -0.14071103 </v>
   <v>       0.00000000       0.03271496      -0.16540687 </v>
   <v>       0.00000000       0.03433903      -0.22812044 </v>
   <v>       0.00000000       0.45036663       0.32085517 </v>
   <v>       0.00000000      -0.51755476       0.27676895 </v>
  </varray>
  <varray name="stress" >
   <v>     -32.75060379       0.00000000       0.00000000 </v>
   <v>       0.00000000     -32.99759205      -0.96682092 </v>
   <v>       0.00000000      -0.96682086       3.03139157 </v>
  </varray>
  <energy>
   <i name="e_fr_energy">    -38.26320784 </i>
   <i name="e_wo_entrp">    -38.27751353 </i>
   <i name="e_0_energy">    -38.26797640 </i>
  </energy>
  <time name="totalsc">    3.23    3.27</time>
 </calculation>
 <calculation>
  <scstep>
   <time name="dav">    0.32    0.33</time>
   <time name="total">    0.40    0.40</time>
   <energy>
    <i name="alphaZ">    216.17040255 </i>
    <i name="ewald">  43217.93077231 </i>
    <i name="hartreedc"> -53964.97841346 </i>
    <i name="XCdc">    362.47494401 </i>
    <i name="pawpsdc">  10523.23521664 </i>
    <i name="pawaedc"> -11385.21833131 </i>
    <i name="eentropy">      0.01630108 </i>
    <i name="bandstr">   -157.14417595 </i>
    <i name="atom">  11152.61838693 </i>
    <i name="e_fr_energy">    -34.89489720 </i>
    <i name="e_wo_entrp">    -34.91119828 </i>
    <i name="e_0_energy">    -34.90033089 </i>
   </energy>
  </scstep>
  <scstep>
   <time name="dav">    0.39    0.39</time>
   <time name="total">    0.47    0.47</time>
   <energy>
    <i name="e_fr_energy">    -35.02447106 </i>
    <i name="e_wo_entrp">    -35.04072728 </i>
    <i name="e_0_energy">    -35.02988980 </i>
   </energy>
  </scstep>
  <scstep>
   <time name="dav">    0.33    0.33</time>
   <time name="total">    0.41    0.41</time>
   <energy>
    <i name="e_fr_energy">    -35.01495614 </i>
    <i name="e_wo_entrp">    -35.03097536 </i>
    <i name="e_0_energy">    -35.02029588 </i>
   </energy>
  </scstep>
  <scstep>
   <time name="dav">    0.35    0.35</time>
   <time name="total">    0.42    0.43</time>
   <energy>
    <i name="e_fr_energy">    -35.01429047 </i>
    <i name="e_wo_entrp">    -35.03090782 </i>
    <i name="e_0_energy">    -35.01982959 </i>
   </energy>
  </scstep>
  <scstep>
   <time name="dav">    0.37    0.38</time>
   <time name="total">    0.45    0.46</time>
   <energy>
    <i name="e_fr_energy">    -35.01325501 </i>
    <i name="e_wo_entrp">    -35.02933759 </i>
    <i name="e_0_energy">    -35.01861587 </i>
   </energy>
  </scstep>
  <scstep>
   <time name="dav">    0.37    0.37</time>
   <time name="total">    0.45    0.45</time>
   <energy>
    <i name="e_fr_energy">    -35.01246733 </i>
    <i name="e_wo_entrp">    -35.02937316 </i>
    <i name="e_0_energy">    -35.01810260 </i>
   </energy>
  </scstep>
  <scstep>
   <time name="dav">    0.44    0.45</time>
   <time name="total">    0.52    0.53</time>
   <energy>
    <i name="e_fr_energy">    -35.01246367 </i>
    <i name="e_wo_entrp">    -35.02909327 </i>
    <i name="e_0_energy">    -35.01800687 </i>
   </energy>
  </scstep>
  <scstep>
   <time name="dav">    0.26    0.27</time>
   <time name="total">    0.29    0.29</time>
   <energy>
    <i name="alphaZ">    216.17040255 </i>
    <i name="ewald">  43217.93077231 </i>
    <i name="hartreedc"> -53962.64526578 </i>
    <i name="XCdc">    362.43678538 </i>
    <i name="pawpsdc">  10552.54829000 </i>
    <i name="pawaedc"> -11415.04805970 </i>
    <i name="eentropy">      0.01666932 </i>
    <i name="bandstr">   -159.04041834 </i>
    <i name="atom">  11152.61838693 </i>
    <i name="e_fr_energy">    -35.01243733 </i>
    <i name="e_wo_entrp">    -35.02910665 </i>
    <i name="e_0_energy">    -35.01799377 </i>
   </energy>
  </scstep>
  <structure>
   <crystal>
    <varray name="basis" >
     <v>       3.63000011       0.00000000       0.00000000 </v>
     <v>       0.00000000       2.56679773       0.00000000 </v>
     <v>       0.00000000       0.00000000      23.98379135 </v>
    </varray>
    <i name="volume">    223.46840188 </i>
    <varray name="rec_basis" >
     <v>       0.27548208       0.00000000       0.00000000 </v>
     <v>       0.00000000       0.38959050       0.00000000 </v>
     <v>       0.00000000       0.00000000       0.04169483 </v>
    </varray>
   </crystal>
   <varray name="positions" >
    <v>       0.00000000       0.00001708       0.00462337 </v>
    <v>       0.50000000       0.50001389       0.04961720 </v>
    <v>       0.00000000      -0.00019951       0.10456302 </v>
    <v>       0.50000000       0.50021377       0.15852597 </v>
    <v>       0.00000000      -0.00005370       0.20930919 </v>
    <v>       0.50000000       0.49930169       0.26242931 </v>
    <v>       0.00000000       0.00439953       0.31476696 </v>
    <v>       0.50000000       0.50363348       0.36118160 </v>
    <v>       1.00000000       0.49189070       0.43039219 </v>
    <v>       1.00000000       0.79141756       0.42992084 </v>
   </varray>
  </structure>
  <varray name="forces" >
   <v>       0.00000000       0.00117285      -0.26706687 </v>
   <v>       0.00000000       0.00032442       0.30549290 </v>
   <v>       0.00000000       0.00173397       0.13068540 </v>
   <v>       0.00000000      -0.00089492      -0.26315645 </v>
   <v>       0.00000000      -0.00132361      -0.04933542 </v>
   <v>       0.00000000       0.01572867      -0.31345459 </v>
   <v>       0.00000000       0.00402654      -0.06022288 </v>
   <v>       0.00000000       0.02721413      -0.00362384 </v>
   <v>       0.00000000       0.09536212       0.28667224 </v>
   <v>       0.00000000      -0.14334417       0.23400949 </v>
  </varray>
  <varray name="stress" >
   <v>     -27.20277172       0.00000000       0.00000000 </v>
   <v>       0.00000000     -29.05370475      -0.80077560 </v>
   <v>       0.00000000      -0.80077567      10.82545994 </v>
  </varray>
  <energy>
   <i name="e_fr_energy">    -38.30143355 </i>
   <i name="e_wo_entrp">    -38.31810287 </i>
   <i name="e_0_energy">    -38.30698999 </i>
  </energy>
  <time name="totalsc">    3.90    3.95</time>
 </calculation>
 <calculation>
  <scstep>
   <time name="dav">    0.31    0.31</time>
   <time name="total">    0.38    0.39</time>
   <energy>
    <i name="alphaZ">    216.17040255 </i>
    <i name="ewald">  43316.73063931 </i>
    <i name="hartreedc"> -54061.30286780 </i>
    <i name="XCdc">    362.44708587 </i>
    <i name="pawpsdc">  10552.47209558 </i>
    <i name="pawaedc"> -11414.96896793 </i>
    <i name="eentropy">      0.01552432 </i>
    <i name="bandstr">   -159.20666130 </i>
    <i name="atom">  11152.61838693 </i>
    <i name="e_fr_energy">    -35.02436248 </i>
    <i name="e_wo_entrp">    -35.03988681 </i>
    <i name="e_0_energy">    -35.02953726 </i>
   </energy>
  </scstep>
  <scstep>
   <time name="dav">    0.38    0.38</time>
   <time name="total">    0.46    0.46</time>
   <energy>
    <i name="e_fr_energy">    -35.03184232 </i>
    <i name="e_wo_entrp">    -35.04757219 </i>
    <i name="e_0_energy">    -35.03708561 </i>
   </energy>
  </scstep>
  <scstep>
   <time name="dav">    0.34    0.34</time>
   <time name="total">    0.42    0.42</time>
   <energy>
    <i name="e_fr_energy">    -35.03165918 </i>
    <i name="e_wo_entrp">    -35.04719765 </i>
    <i name="e_0_energy">    -35.03683867 </i>
   </energy>
  </scstep>
  <scstep>
   <time name="dav">    0.31    0.31</time>
   <time name="total">    0.38    0.39</time>
   <energy>
    <i name="e_fr_energy">    -35.03152106 </i>
    <i name="e_wo_entrp">    -35.04739678 </i>
    <i name="e_0_energy">    -35.03681296 </i>
   </energy>
  </scstep>
  <scstep>
   <time name="dav">    0.26    0.26</time>
   <time name="total">    0.34    0.34</time>
   <energy>
    <i name="e_fr_energy">    -35.03142730 </i>
    <i name="e_wo_entrp">    -35.04696828 </i>
    <i name="e_0_energy">    -35.03660763 </i>
   </energy>
  </scstep>
  <scstep>
   <time name="dav">    0.23    0.24</time>
   <time name="total">    0.26    0.26</time>
   <energy>
    <i name="alphaZ">    216.17040255 </i>
    <i name="ewald">  43316.73063931 </i>
    <i name="hartreedc"> -54060.67948775 </i>
    <i name="XCdc">    362.46329529 </i>
    <i name="pawpsdc">  10554.24189791 </i>
    <i name="pawaedc"> -11416.74513466 </i>
    <i name="eentropy">      0.01570854 </i>
    <i name="bandstr">   -159.84707773 </i>
    <i name="atom">  11152.61838693 </i>
    <i name="e_fr_energy">    -35.03136960 </i>
    <i name="e_wo_entrp">    -35.04707814 </i>
    <i name="e_0_energy">    -35.03660578 </i>
   </energy>
  </scstep>
  <structure>
   <crystal>
    <varray name="basis" >
     <v>       3.63000011       0.00000000       0.00000000 </v>
     <v>       0.00000000       2.56679773       0.00000000 </v>
     <v>       0.00000000       0.00000000      23.98379135 </v>
    </varray>
    <i name="volume">    223.46840188 </i>
    <varray name="rec_basis" >
     <v>       0.27548208       0.00000000       0.00000000 </v>
     <v>       0.00000000       0.38959050       0.00000000 </v>
     <v>       0.00000000       0.00000000       0.04169483 </v>
    </varray>
   </crystal>
   <varray name="positions" >
    <v>       0.00000000       0.00004125       0.00453528 </v>
    <v>       0.50000000       0.50002129       0.04986127 </v>
    <v>       0.00000000      -0.00018630       0.10482058 </v>
    <v>       0.50000000       0.50021783       0.15804004 </v>
    <v>       0.00000000      -0.00008500       0.20906714 </v>
    <v>       0.50000000       0.49953462       0.26173529 </v>
    <v>       0.00000000       0.00491833       0.31440747 </v>
    <v>       0.50000000       0.50452316       0.36082693 </v>
    <v>       1.00000000       0.49399345       0.43133127 </v>
    <v>       1.00000000       0.78765586       0.43070440 </v>
   </varray>
  </structure>
  <varray name="forces" >
   <v>       0.00000000       0.00154506      -0.20676383 </v>
   <v>       0.00000000       0.00107999       0.22685533 </v>
   <v>       0.00000000       0.00236779       0.02119158 </v>
   <v>       0.00000000      -0.00015401      -0.18628452 </v>
   <v>       0.00000000       0.00056836      -0.04677610 </v>
   <v>       0.00000000       0.01561319      -0.21410857 </v>
   <v>       0.00000000       0.00392124      -0.05977147 </v>
   <v>       0.00000000       0.01773326      -0.03866081 </v>
   <v>       0.00000000      -0.28697717       0.28768080 </v>
   <v>       0.00000000       0.24430229       0.21663758 </v>
  </varray>
  <varray name="stress" >
   <v>     -25.89925688       0.00000000       0.00000000 </v>
   <v>       0.00000000     -25.61085127      -0.79870053 </v>
   <v>       0.00000000      -0.79870057      12.03033583 </v>
  </varray>
  <energy>
   <i name="e_fr_energy">    -38.32240438 </i>
   <i name="e_wo_entrp">    -38.33811292 </i>
   <i name="e_0_energy">    -38.32764056 </i>
  </energy>
  <time name="totalsc">    2.73    2.82</time>
 </calculation>
 <calculation>
  <scstep>
   <time name="dav">    0.31    0.31</time>
   <time name="total">    0.39    0.39</time>
   <energy>
    <i name="alphaZ">    216.17040255 </i>
    <i name="ewald">  43475.11290091 </i>
    <i name="hartreedc"> -54218.70103245 </i>
    <i name="XCdc">    362.48519550 </i>
    <i name="pawpsdc">  10554.28394300 </i>
    <i name="pawaedc"> -11416.78999132 </i>
    <i name="eentropy">      0.01356234 </i>
    <i name="bandstr">   -160.21553608 </i>
    <i name="atom">  11152.61838693 </i>
    <i name="e_fr_energy">    -35.02216862 </i>
    <i name="e_wo_entrp">    -35.03573096 </i>
    <i name="e_0_energy">    -35.02668940 </i>
   </energy>
  </scstep>
  <scstep>
   <time name="dav">    0.38    0.38</time>
   <time name="total">    0.46    0.46</time>
   <energy>
    <i name="e_fr_energy">    -35.04173792 </i>
    <i name="e_wo_entrp">    -35.05567336 </i>
    <i name="e_0_energy">    -35.04638307 </i>
   </energy>
  </scstep>
  <scstep>
   <time name="dav">    0.35    0.35</time>
   <time name="total">    0.43    0.43</time>
   <energy>
    <i name="e_fr_energy">    -35.04100655 </i>
    <i name="e_wo_entrp">    -35.05484633 </i>
    <i name="e_0_energy">    -35.04561981 </i>
   </energy>
  </scstep>
  <scstep>
   <time name="dav">    0.34    0.34</time>
   <time name="total">    0.41    0.42</time>
   <energy>
    <i name="e_fr_energy">    -35.04055230 </i>
    <i name="e_wo_entrp">    -35.05473650 </i>
    <i name="e_0_energy">    -35.04528037 </i>
   </energy>
  </scstep>
  <scstep>
   <time name="dav">    0.37    0.37</time>
   <time name="total">    0.45    0.45</time>
   <energy>
    <i name="e_fr_energy">    -35.04042586 </i>
    <i name="e_wo_entrp">    -35.05420442 </i>
    <i name="e_0_energy">    -35.04501871 </i>
   </energy>
  </scstep>
  <scstep>
   <time name="dav">    0.25    0.25</time>
   <time name="total">    0.32    0.33</time>
   <energy>
    <i name="e_fr_energy">    -35.04031259 </i>
    <i name="e_wo_entrp">    -35.05444472 </i>
    <i name="e_0_energy">    -35.04502330 </i>
   </energy>
  </scstep>
  <scstep>
   <time name="dav">    0.23    0.23</time>
   <time name="total">    0.25    0.25</time>
   <energy>
    <i name="alphaZ">    216.17040255 </i>
    <i name="ewald">  43475.11290091 </i>
    <i name="hartreedc"> -54217.43590073 </i>
    <i name="XCdc">    362.51476289 </i>
    <i name="pawpsdc">  10558.02961243 </i>
    <i name="pawaedc"> -11420.57571681 </i>
    <i name="eentropy">      0.01401547 </i>
    <i name="bandstr">   -161.48874248 </i>
    <i name="atom">  11152.61838693 </i>
    <i name="e_fr_energy">    -35.04027883 </i>
    <i name="e_wo_entrp">    -35.05429431 </i>
    <i name="e_0_energy">    -35.04495066 </i>
   </energy>
  </scstep>
  <structure>
   <crystal>
    <varray name="basis" >
     <v>       3.63000011       0.00000000       0.00000000 </v>
     <v>       0.00000000       2.56679773       0.00000000 </v>
     <v>       0.00000000       0.00000000      23.98379135 </v>
    </varray>
    <i name="volume">    223.46840188 </i>
    <varray name="rec_basis" >
     <v>       0.27548208       0.00000000       0.00000000 </v>
     <v>       0.00000000       0.38959050       0.00000000 </v>
     <v>       0.00000000       0.00000000       0.04169483 </v>
    </varray>
   </crystal>
   <varray name="positions" >
    <v>       0.00000000       0.00007987       0.00439454 </v>
    <v>       0.50000000       0.50003311       0.05025120 </v>
    <v>       0.00000000      -0.00016519       0.10523209 </v>
    <v>       0.50000000       0.50022431       0.15726366 </v>
    <v>       0.00000000      -0.00013500       0.20868041 </v>
    <v>       0.50000000       0.49990678       0.26062645 </v>
    <v>       0.00000000       0.00574722       0.31383309 </v>
    <v>       0.50000000       0.50594461       0.36026027 </v>
    <v>       1.00000000       0.49735304       0.43283165 </v>
    <v>       1.00000000       0.78164577       0.43195629 </v>
   </varray>
  </structure>
  <varray name="forces" >
   <v>       0.00000000       0.00124302      -0.13638793 </v>
   <v>       0.00000000       0.00116801       0.14432824 </v>
   <v>       0.00000000       0.00255205      -0.11944310 </v>
   <v>       0.00000000      -0.00080180      -0.10000784 </v>
   <v>       0.00000000       0.00217340      -0.03148043 </v>
   <v>       0.00000000       0.01591651      -0.08828218 </v>
   <v>       0.00000000       0.00364997      -0.04986766 </v>
   <v>       0.00000000       0.01015339      -0.09047578 </v>
   <v>       0.00000000      -1.05259123       0.29806483 </v>
   <v>       0.00000000       1.01653667       0.17355185 </v>
  </varray>
  <varray name="stress" >
   <v>     -25.64529234       0.00000000       0.00000000 </v>
   <v>       0.00000000     -21.33999890      -0.86122783 </v>
   <v>       0.00000000      -0.86122792      13.22034481 </v>
  </varray>
  <energy>
   <i name="e_fr_energy">    -38.33559250 </i>
   <i name="e_wo_entrp">    -38.34960797 </i>
   <i name="e_0_energy">    -38.34026433 </i>
  </energy>
  <time name="totalsc">    3.20    3.26</time>
 </calculation>
 <calculation>
  <scstep>
   <time name="dav">    0.31    0.31</time>
   <time name="total">    0.38    0.39</time>
   <energy>
    <i name="alphaZ">    216.17040255 </i>
    <i name="ewald">  43500.63364422 </i>
    <i name="hartreedc"> -54243.07068681 </i>
    <i name="XCdc">    362.51256588 </i>
    <i name="pawpsdc">  10558.03773355 </i>
    <i name="pawaedc"> -11420.58501354 </i>
    <i name="eentropy">      0.01368017 </i>
    <i name="bandstr">   -161.37586158 </i>
    <i name="atom">  11152.61838693 </i>
    <i name="e_fr_energy">    -35.04514864 </i>
    <i name="e_wo_entrp">    -35.05882881 </i>
    <i name="e_0_energy">    -35.04970870 </i>
   </energy>
  </scstep>
  <scstep>
   <time name="dav">    0.40    0.40</time>
   <time name="total">    0.48    0.48</time>
   <energy>
    <i name="e_fr_energy">    -35.04566911 </i>
    <i name="e_wo_entrp">    -35.05939744 </i>
    <i name="e_0_energy">    -35.05024522 </i>
   </energy>
  </scstep>
  <scstep>
   <time name="dav">    0.24    0.24</time>
   <time name="total">    0.27    0.27</time>
   <energy>
    <i name="alphaZ">    216.17040255 </i>
    <i name="ewald">  43500.63364422 </i>
    <i name="hartreedc"> -54243.00459610 </i>
    <i name="XCdc">    362.50894504 </i>
    <i name="pawpsdc">  10558.03397016 </i>
    <i name="pawaedc"> -11420.56975572 </i>
    <i name="eentropy">      0.01365730 </i>
    <i name="bandstr">   -161.45032252 </i>
    <i name="atom">  11152.61838693 </i>
    <i name="e_fr_energy">    -35.04566815 </i>
    <i name="e_wo_entrp">    -35.05932545 </i>
    <i name="e_0_energy">    -35.05022058 </i>
   </energy>
  </scstep>
  <structure>
   <crystal>
    <varray name="basis" >
     <v>       3.63000011       0.00000000       0.00000000 </v>
     <v>       0.00000000       2.56679773       0.00000000 </v>
     <v>       0.00000000       0.00000000      23.98379135 </v>
    </varray>
    <i name="volume">    223.46840188 </i>
    <varray name="rec_basis" >
     <v>       0.27548208       0.00000000       0.00000000 </v>
     <v>       0.00000000       0.38959050       0.00000000 </v>
     <v>       0.00000000       0.00000000       0.04169483 </v>
    </varray>
   </crystal>
   <varray name="positions" >
    <v>       0.00000000       0.00008739       0.00435613 </v>
    <v>       0.50000000       0.50003627       0.05033033 </v>
    <v>       0.00000000      -0.00015904       0.10528387 </v>
    <v>       0.50000000       0.50022447       0.15712799 </v>
    <v>       0.00000000      -0.00014062       0.20861497 </v>
    <v>       0.50000000       0.49998358       0.26043904 </v>
    <v>       0.00000000       0.00588359       0.31373553 </v>
    <v>       0.50000000       0.50618271       0.36015920 </v>
    <v>       1.00000000       0.49674152       0.43310608 </v>
    <v>       1.00000000       0.78179462       0.43217650 </v>
   </varray>
  </structure>
  <varray name="forces" >
   <v>       0.00000000       0.00148319      -0.12652353 </v>
   <v>       0.00000000       0.00142396       0.12637005 </v>
   <v>       0.00000000       0.00275710      -0.14242735 </v>
   <v>       0.00000000      -0.00095108      -0.08311517 </v>
   <v>       0.00000000       0.00266650      -0.02919432 </v>
   <v>       0.00000000       0.01459148      -0.06132682 </v>
   <v>       0.00000000       0.00298045      -0.04484696 </v>
   <v>       0.00000000       0.01092241      -0.09790337 </v>
   <v>       0.00000000      -0.97898535       0.29162483 </v>
   <v>       0.00000000       0.94311135       0.16734265 </v>
  </varray>
  <varray name="stress" >
   <v>     -25.97859371       0.00000000       0.00000000 </v>
   <v>       0.00000000     -22.12264258      -0.85137173 </v>
   <v>       0.00000000      -0.85137159      12.88964207 </v>
  </varray>
  <energy>
   <i name="e_fr_energy">    -38.34196046 </i>
   <i name="e_wo_entrp">    -38.35561776 </i>
   <i name="e_0_energy">    -38.34651289 </i>
  </energy>
  <time name="totalsc">    1.62    1.69</time>
 </calculation>
 <calculation>
  <scstep>
   <time name="dav">    0.31    0.31</time>
   <time name="total">    0.38    0.39</time>
   <energy>
    <i name="alphaZ">    216.17040255 </i>
    <i name="ewald">  43577.30042896 </i>
    <i name="hartreedc"> -54319.75802010 </i>
    <i name="XCdc">    362.50432842 </i>
    <i name="pawpsdc">  10558.03873467 </i>
    <i name="pawaedc"> -11420.57794177 </i>
    <i name="eentropy">      0.01272840 </i>
    <i name="bandstr">   -161.36390468 </i>
    <i name="atom">  11152.61838693 </i>
    <i name="e_fr_energy">    -35.05485662 </i>
    <i name="e_wo_entrp">    -35.06758502 </i>
    <i name="e_0_energy">    -35.05909942 </i>
   </energy>
  </scstep>
  <scstep>
   <time name="dav">    0.38    0.38</time>
   <time name="total">    0.46    0.46</time>
   <energy>
    <i name="e_fr_energy">    -35.05954021 </i>
    <i name="e_wo_entrp">    -35.07219289 </i>
    <i name="e_0_energy">    -35.06375777 </i>
   </energy>
  </scstep>
  <scstep>
   <time name="dav">    0.34    0.34</time>
   <time name="total">    0.42    0.42</time>
   <energy>
    <i name="e_fr_energy">    -35.05939450 </i>
    <i name="e_wo_entrp">    -35.07234078 </i>
    <i name="e_0_energy">    -35.06370993 </i>
   </energy>
  </scstep>
  <scstep>
   <time name="dav">    0.30    0.30</time>
   <time name="total">    0.38    0.38</time>
   <energy>
    <i name="e_fr_energy">    -35.05932641 </i>
    <i name="e_wo_entrp">    -35.07193898 </i>
    <i name="e_0_energy">    -35.06353060 </i>
   </energy>
  </scstep>
  <scstep>
   <time name="dav">    0.25    0.25</time>
   <time name="total">    0.27    0.27</time>
   <energy>
    <i name="alphaZ">    216.17040255 </i>
    <i name="ewald">  43577.30042896 </i>
    <i name="hartreedc"> -54318.92083702 </i>
    <i name="XCdc">    362.49455860 </i>
    <i name="pawpsdc">  10558.55524122 </i>
    <i name="pawaedc"> -11421.11289981 </i>
    <i name="eentropy">      0.01289440 </i>
    <i name="bandstr">   -162.17742968 </i>
    <i name="atom">  11152.61838693 </i>
    <i name="e_fr_energy">    -35.05925384 </i>
    <i name="e_wo_entrp">    -35.07214824 </i>
    <i name="e_0_energy">    -35.06355197 </i>
   </energy>
  </scstep>
  <structure>
   <crystal>
    <varray name="basis" >
     <v>       3.63000011       0.00000000       0.00000000 </v>
     <v>       0.00000000       2.56679773       0.00000000 </v>
     <v>       0.00000000       0.00000000      23.98379135 </v>
    </varray>
    <i name="volume">    223.46840188 </i>
    <varray name="rec_basis" >
     <v>       0.27548208       0.00000000       0.00000000 </v>
     <v>       0.00000000       0.38959050       0.00000000 </v>
     <v>       0.00000000       0.00000000       0.04169483 </v>
    </varray>
   </crystal>
   <varray name="positions" >
    <v>       0.00000000       0.00010997       0.00424093 </v>
    <v>       0.50000000       0.50004575       0.05056772 </v>
    <v>       0.00000000      -0.00014058       0.10543921 </v>
    <v>       0.50000000       0.50022495       0.15672096 </v>
    <v>       0.00000000      -0.00015747       0.20841864 </v>
    <v>       0.50000000       0.50021398       0.25987682 </v>
    <v>       0.00000000       0.00629270       0.31344286 </v>
    <v>       0.50000000       0.50689703       0.35985600 </v>
    <v>       1.00000000       0.49490698       0.43392938 </v>
    <v>       1.00000000       0.78224119       0.43283713 </v>
   </varray>
  </structure>
  <varray name="forces" >
   <v>       0.00000000       0.00121929      -0.08843977 </v>
   <v>       0.00000000       0.00154562       0.05893614 </v>
   <v>       0.00000000       0.00263563      -0.21026314 </v>
   <v>       0.00000000      -0.00115530      -0.03036986 </v>
   <v>       0.00000000       0.00389568      -0.02060716 </v>
   <v>       0.00000000       0.01437057       0.00435348 </v>
   <v>       0.00000000       0.00406939      -0.03474942 </v>
   <v>       0.00000000       0.00733996      -0.11178896 </v>
   <v>       0.00000000      -0.76175276       0.27734176 </v>
   <v>       0.00000000       0.72783192       0.15558692 </v>
  </varray>
  <varray name="stress" >
   <v>     -25.58158306       0.00000000       0.00000000 </v>
   <v>       0.00000000     -22.69758258      -0.82657555 </v>
   <v>       0.00000000      -0.82657558      14.14621967 </v>
  </varray>
  <energy>
   <i name="e_fr_energy">    -38.35849784 </i>
   <i name="e_wo_entrp">    -38.37139224 </i>
   <i name="e_0_energy">    -38.36279597 </i>
  </energy>
  <time name="totalsc">    2.39    2.42</time>
 </calculation>
 <calculation>
  <scstep>
   <time name="dav">    0.31    0.31</time>
   <time name="total">    0.38    0.39</time>
   <energy>
    <i name="alphaZ">    216.17040255 </i>
    <i name="ewald">  43731.10473725 </i>
    <i name="hartreedc"> -54472.99685400 </i>
    <i name="XCdc">    362.48907402 </i>
    <i name="pawpsdc">  10558.63606566 </i>
    <i name="pawaedc"> -11421.19459978 </i>
    <i name="eentropy">      0.01057365 </i>
    <i name="bandstr">   -161.89490726 </i>
    <i name="atom">  11152.61838693 </i>
    <i name="e_fr_energy">    -35.05712099 </i>
    <i name="e_wo_entrp">    -35.06769464 </i>
    <i name="e_0_energy">    -35.06064554 </i>
   </energy>
  </scstep>
  <scstep>
   <time name="dav">    0.38    0.38</time>
   <time name="total">    0.46    0.46</time>
   <energy>
    <i name="e_fr_energy">    -35.07679693 </i>
    <i name="e_wo_entrp">    -35.08748172 </i>
    <i name="e_0_energy">    -35.08035853 </i>
   </energy>
  </scstep>
  <scstep>
   <time name="dav">    0.34    0.34</time>
   <time name="total">    0.42    0.42</time>
   <energy>
    <i name="e_fr_energy">    -35.07602343 </i>
    <i name="e_wo_entrp">    -35.08697618 </i>
    <i name="e_0_energy">    -35.07967435 </i>
   </energy>
  </scstep>
  <scstep>
   <time name="dav">    0.33    0.33</time>
   <time name="total">    0.40    0.41</time>
   <energy>
    <i name="e_fr_energy">    -35.07574118 </i>
    <i name="e_wo_entrp">    -35.08643081 </i>
    <i name="e_0_energy">    -35.07930439 </i>
   </energy>
  </scstep>
  <scstep>
   <time name="dav">    0.38    0.38</time>
   <time name="total">    0.45    0.45</time>
   <energy>
    <i name="e_fr_energy">    -35.07562409 </i>
    <i name="e_wo_entrp">    -35.08676969 </i>
    <i name="e_0_energy">    -35.07933929 </i>
   </energy>
  </scstep>
  <scstep>
   <time name="dav">    0.24    0.24</time>
   <time name="total">    0.32    0.32</time>
   <energy>
    <i name="e_fr_energy">    -35.07556325 </i>
    <i name="e_wo_entrp">    -35.08637172 </i>
    <i name="e_0_energy">    -35.07916608 </i>
   </energy>
  </scstep>
  <scstep>
   <time name="dav">    0.24    0.24</time>
   <time name="total">    0.26    0.26</time>
   <energy>
    <i name="alphaZ">    216.17040255 </i>
    <i name="ewald">  43731.10473725 </i>
    <i name="hartreedc"> -54471.44036453 </i>
    <i name="XCdc">    362.47148304 </i>
    <i name="pawpsdc">  10560.63802300 </i>
    <i name="pawaedc"> -11423.25976890 </i>
    <i name="eentropy">      0.01092811 </i>
    <i name="bandstr">   -163.38934970 </i>
    <i name="atom">  11152.61838693 </i>
    <i name="e_fr_energy">    -35.07552226 </i>
    <i name="e_wo_entrp">    -35.08645037 </i>
    <i name="e_0_energy">    -35.07916497 </i>
   </energy>
  </scstep>
  <structure>
   <crystal>
    <varray name="basis" >
     <v>       3.63000011       0.00000000       0.00000000 </v>
     <v>       0.00000000       2.56679773       0.00000000 </v>
     <v>       0.00000000       0.00000000      23.98379135 </v>
    </varray>
    <i name="volume">    223.46840188 </i>
    <varray name="rec_basis" >
     <v>       0.27548208       0.00000000       0.00000000 </v>
     <v>       0.00000000       0.38959050       0.00000000 </v>
     <v>       0.00000000       0.00000000       0.04169483 </v>
    </varray>
   </crystal>
   <varray name="positions" >
    <v>       0.00000000       0.00015511       0.00401053 </v>
    <v>       0.50000000       0.50006472       0.05104249 </v>
    <v>       0.00000000      -0.00010365       0.10574990 </v>
    <v>       0.50000000       0.50022592       0.15590690 </v>
    <v>       0.00000000      -0.00019117       0.20802599 </v>
    <v>       0.50000000       0.50067479       0.25875237 </v>
    <v>       0.00000000       0.00711093       0.31285750 </v>
    <v>       0.50000000       0.50832567       0.35924960 </v>
    <v>       1.00000000       0.49123789       0.43557598 </v>
    <v>       1.00000000       0.78313431       0.43415839 </v>
   </varray>
  </structure>
  <varray name="forces" >
   <v>       0.00000000       0.00011917      -0.00363639 </v>
   <v>       0.00000000       0.00069251      -0.04649647 </v>
   <v>       0.00000000       0.00184137      -0.33648242 </v>
   <v>       0.00000000      -0.00252164       0.05525636 </v>
   <v>       0.00000000       0.00525152      -0.01117900 </v>
   <v>       0.00000000       0.01256622       0.11333222 </v>
   <v>       0.00000000       0.00648436      -0.03392803 </v>
   <v>       0.00000000       0.00705668      -0.14382761 </v>
   <v>       0.00000000      -0.35639219       0.25628220 </v>
   <v>       0.00000000       0.32490200       0.15067914 </v>
  </varray>
  <varray name="stress" >
   <v>     -27.06984866       0.00000000       0.00000000 </v>
   <v>       0.00000000     -26.38842773      -0.77453905 </v>
   <v>       0.00000000      -0.77453914      13.84851797 </v>
  </varray>
  <energy>
   <i name="e_fr_energy">    -38.38075023 </i>
   <i name="e_wo_entrp">    -38.39167834 </i>
   <i name="e_0_energy">    -38.38439293 </i>
  </energy>
  <time name="totalsc">    3.18    3.25</time>
 </calculation>
 <calculation>
  <scstep>
   <time name="dav">    0.31    0.31</time>
   <time name="total">    0.38    0.39</time>
   <energy>
    <i name="alphaZ">    216.17040255 </i>
    <i name="ewald">  44040.59705518 </i>
    <i name="hartreedc"> -54781.23412828 </i>
    <i name="XCdc">    362.47990599 </i>
    <i name="pawpsdc">  10560.63153082 </i>
    <i name="pawaedc"> -11423.24832988 </i>
    <i name="eentropy">      0.00631724 </i>
    <i name="bandstr">   -163.00665819 </i>
    <i name="atom">  11152.61838693 </i>
    <i name="e_fr_energy">    -34.98551765 </i>
    <i name="e_wo_entrp">    -34.99183489 </i>
    <i name="e_0_energy">    -34.98762340 </i>
   </energy>
  </scstep>
  <scstep>
   <time name="dav">    0.38    0.38</time>
   <time name="total">    0.45    0.46</time>
   <energy>
    <i name="e_fr_energy">    -35.06959488 </i>
    <i name="e_wo_entrp">    -35.07583588 </i>
    <i name="e_0_energy">    -35.07167521 </i>
   </energy>
  </scstep>
  <scstep>
   <time name="dav">    0.34    0.34</time>
   <time name="total">    0.42    0.42</time>
   <energy>
    <i name="e_fr_energy">    -35.06647664 </i>
    <i name="e_wo_entrp">    -35.07378635 </i>
    <i name="e_0_energy">    -35.06891321 </i>
   </energy>
  </scstep>
  <scstep>
   <time name="dav">    0.32    0.32</time>
   <time name="total">    0.39    0.40</time>
   <energy>
    <i name="e_fr_energy">    -35.06520421 </i>
    <i name="e_wo_entrp">    -35.07154476 </i>
    <i name="e_0_energy">    -35.06731773 </i>
   </energy>
  </scstep>
  <scstep>
   <time name="dav">    0.45    0.45</time>
   <time name="total">    0.53    0.53</time>
   <energy>
    <i name="e_fr_energy">    -35.06460809 </i>
    <i name="e_wo_entrp">    -35.07206568 </i>
    <i name="e_0_energy">    -35.06709395 </i>
   </energy>
  </scstep>
  <scstep>
   <time name="dav">    0.44    0.45</time>
   <time name="total">    0.52    0.52</time>
   <energy>
    <i name="e_fr_energy">    -35.06361204 </i>
    <i name="e_wo_entrp">    -35.07058287 </i>
    <i name="e_0_energy">    -35.06593565 </i>
   </energy>
  </scstep>
  <scstep>
   <time name="dav">    0.38    0.38</time>
   <time name="total">    0.40    0.40</time>
   <energy>
    <i name="alphaZ">    216.17040255 </i>
    <i name="ewald">  44040.59705518 </i>
    <i name="hartreedc"> -54777.66436115 </i>
    <i name="XCdc">    362.43524431 </i>
    <i name="pawpsdc">  10566.18905580 </i>
    <i name="pawaedc"> -11428.99195243 </i>
    <i name="eentropy">      0.00703219 </i>
    <i name="bandstr">   -166.42454084 </i>
    <i name="atom">  11152.61838693 </i>
    <i name="e_fr_energy">    -35.06367746 </i>
    <i name="e_wo_entrp">    -35.07070965 </i>
    <i name="e_0_energy">    -35.06602152 </i>
   </energy>
  </scstep>
  <structure>
   <crystal>
    <varray name="basis" >
     <v>       3.63000011       0.00000000       0.00000000 </v>
     <v>       0.00000000       2.56679773       0.00000000 </v>
     <v>       0.00000000       0.00000000      23.98379135 </v>
    </varray>
    <i name="volume">    223.46840188 </i>
    <varray name="rec_basis" >
     <v>       0.27548208       0.00000000       0.00000000 </v>
     <v>       0.00000000       0.38959050       0.00000000 </v>
     <v>       0.00000000       0.00000000       0.04169483 </v>
    </varray>
   </crystal>
   <varray name="positions" >
    <v>       0.00000000       0.00024540       0.00354973 </v>
    <v>       0.50000000       0.50010266       0.05199203 </v>
    <v>       0.00000000      -0.00002980       0.10637128 </v>
    <v>       0.50000000       0.50022785       0.15427879 </v>
    <v>       0.00000000      -0.00025857       0.20724069 </v>
    <v>       0.50000000       0.50159640       0.25650348 </v>
    <v>       0.00000000       0.00874737       0.31168679 </v>
    <v>       0.50000000       0.51118294       0.35803679 </v>
    <v>       1.00000000       0.48389971       0.43886917 </v>
    <v>       1.00000000       0.78492055       0.43680091 </v>
   </varray>
  </structure>
  <varray name="forces" >
   <v>       0.00000000       0.00023668       0.11359071 </v>
   <v>       0.00000000       0.00102216      -0.31867002 </v>
   <v>       0.00000000       0.00182994      -0.61566468 </v>
   <v>       0.00000000      -0.00322784       0.29557893 </v>
   <v>       0.00000000       0.01055298       0.02288318 </v>
   <v>       0.00000000       0.00774882       0.36677990 </v>
   <v>       0.00000000       0.00563679      -0.00447712 </v>
   <v>       0.00000000      -0.00089560      -0.15562886 </v>
   <v>       0.00000000       0.31409964       0.16540584 </v>
   <v>       0.00000000      -0.33700357       0.13020212 </v>
  </varray>
  <varray name="stress" >
   <v>     -29.65384966       0.00000000       0.00000000 </v>
   <v>       0.00000000     -32.88794737      -0.61823383 </v>
   <v>       0.00000000      -0.61823392      14.49257699 </v>
  </varray>
  <energy>
   <i name="e_fr_energy">    -38.38139126 </i>
   <i name="e_wo_entrp">    -38.38842345 </i>
   <i name="e_0_energy">    -38.38373533 </i>
  </energy>
  <time name="totalsc">    3.58    3.63</time>
 </calculation>
 <calculation>
  <scstep>
   <time name="dav">    0.31    0.31</time>
   <time name="total">    0.38    0.39</time>
   <energy>
    <i name="alphaZ">    216.17040255 </i>
    <i name="ewald">  43881.00979685 </i>
    <i name="hartreedc"> -54618.12686195 </i>
    <i name="XCdc">    362.43549336 </i>
    <i name="pawpsdc">  10566.24460879 </i>
    <i name="pawaedc"> -11429.01329867 </i>
    <i name="eentropy">      0.00949142 </i>
    <i name="bandstr">   -166.40593890 </i>
    <i name="atom">  11152.61838693 </i>
    <i name="e_fr_energy">    -35.05791964 </i>
    <i name="e_wo_entrp">    -35.06741106 </i>
    <i name="e_0_energy">    -35.06108344 </i>
   </energy>
  </scstep>
  <scstep>
   <time name="dav">    0.39    0.40</time>
[...]
       <r>     6.1448     2.4616    51.5065 </r>
       <r>     6.2180     2.2227    51.6693 </r>
       <r>     6.2913     1.8844    51.8073 </r>
       <r>     6.3645     1.8714    51.9444 </r>
       <r>     6.4377     2.2656    52.1103 </r>
       <r>     6.5110     2.6790    52.3065 </r>
       <r>     6.5842     2.7137    52.5052 </r>
       <r>     6.6574     2.4474    52.6844 </r>
       <r>     6.7307     2.1445    52.8415 </r>
       <r>     6.8039     1.7449    52.9693 </r>
       <r>     6.8771     1.1945    53.0568 </r>
       <r>     6.9504     0.9945    53.1296 </r>
       <r>     7.0236     1.6822    53.2528 </r>
       <r>     7.0968     2.8508    53.4616 </r>
       <r>     7.1701     3.3651    53.7080 </r>
       <r>     7.2433     2.7091    53.9064 </r>
       <r>     7.3166     1.5743    54.0217 </r>
       <r>     7.3898     0.8528    54.0842 </r>
       <r>     7.4630     0.6253    54.1300 </r>
       <r>     7.5363     0.5413    54.1696 </r>
       <r>     7.6095     0.6737    54.2189 </r>
       <r>     7.6827     1.4215    54.3230 </r>
       <r>     7.7560     2.7644    54.5255 </r>
       <r>     7.8292     4.1055    54.8262 </r>
       <r>     7.9024     4.8675    55.1826 </r>
       <r>     7.9757     4.8863    55.5405 </r>
       <r>     8.0489     4.2453    55.8514 </r>
       <r>     8.1221     3.2188    56.0871 </r>
       <r>     8.1954     2.3956    56.2626 </r>
       <r>     8.2686     2.2484    56.4272 </r>
       <r>     8.3418     2.5066    56.6108 </r>
       <r>     8.4151     2.4604    56.7910 </r>
       <r>     8.4883     1.8519    56.9266 </r>
       <r>     8.5615     1.0771    57.0055 </r>
       <r>     8.6348     0.6368    57.0521 </r>
       <r>     8.7080     0.7287    57.1055 </r>
       <r>     8.7813     1.2528    57.1972 </r>
       <r>     8.8545     1.8584    57.3333 </r>
       <r>     8.9277     2.0836    57.4859 </r>
       <r>     9.0010     1.8247    57.6196 </r>
       <r>     9.0742     1.5458    57.7328 </r>
       <r>     9.1474     1.7152    57.8584 </r>
       <r>     9.2207     2.2420    58.0226 </r>
       <r>     9.2939     2.7081    58.2209 </r>
       <r>     9.3671     2.9171    58.4345 </r>
       <r>     9.4404     2.9677    58.6519 </r>
       <r>     9.5136     2.9849    58.8705 </r>
       <r>     9.5868     3.0460    59.0935 </r>
       <r>     9.6601     3.1699    59.3257 </r>
       <r>     9.7333     3.1777    59.5584 </r>
       <r>     9.8065     2.7989    59.7634 </r>
       <r>     9.8798     2.0063    59.9103 </r>
       <r>     9.9530     1.0794    59.9894 </r>
       <r>    10.0262     0.3554    60.0154 </r>
       <r>    10.0995    -0.0120    60.0145 </r>
       <r>    10.1727    -0.0974    60.0074 </r>
       <r>    10.2459    -0.0656    60.0026 </r>
       <r>    10.3192    -0.0263    60.0007 </r>
       <r>    10.3924    -0.0072    60.0001 </r>
       <r>    10.4657    -0.0014    60.0000 </r>
       <r>    10.5389    -0.0002    60.0000 </r>
       <r>    10.6121    -0.0000    60.0000 </r>
       <r>    10.6854    -0.0000    60.0000 </r>
       <r>    10.7586    -0.0000    60.0000 </r>
       <r>    10.8318    -0.0000    60.0000 </r>
       <r>    10.9051    -0.0000    60.0000 </r>
       <r>    10.9783    -0.0000    60.0000 </r>
       <r>    11.0515    -0.0000    60.0000 </r>
       <r>    11.1248    -0.0000    60.0000 </r>
       <r>    11.1980     0.0000    60.0000 </r>
       <r>    11.2712     0.0000    60.0000 </r>
       <r>    11.3445     0.0000    60.0000 </r>
       <r>    11.4177     0.0000    60.0000 </r>
       <r>    11.4909     0.0000    60.0000 </r>
       <r>    11.5642     0.0000    60.0000 </r>
       <r>    11.6374     0.0000    60.0000 </r>
       <r>    11.7106     0.0000    60.0000 </r>
       <r>    11.7839     0.0000    60.0000 </r>
       <r>    11.8571     0.0000    60.0000 </r>
      </set>
      <set comment="spin 2">
       <r>   -10.1134     0.0000     0.0000 </r>
       <r>   -10.0401     0.0000     0.0000 </r>
       <r>    -9.9669     0.0000     0.0000 </r>
       <r>    -9.8937     0.0000     0.0000 </r>
       <r>    -9.8204     0.0000     0.0000 </r>
       <r>    -9.7472    -0.0000    -0.0000 </r>
       <r>    -9.6739    -0.0000    -0.0000 </r>
       <r>    -9.6007    -0.0000    -0.0000 </r>
       <r>    -9.5275    -0.0000    -0.0000 </r>
       <r>    -9.4542    -0.0000    -0.0000 </r>
       <r>    -9.3810    -0.0000    -0.0000 </r>
       <r>    -9.3078    -0.0000    -0.0000 </r>
       <r>    -9.2345    -0.0000    -0.0000 </r>
       <r>    -9.1613    -0.0000    -0.0000 </r>
       <r>    -9.0881    -0.0000    -0.0000 </r>
       <r>    -9.0148    -0.0000    -0.0000 </r>
       <r>    -8.9416    -0.0000    -0.0000 </r>
       <r>    -8.8684    -0.0000    -0.0000 </r>
       <r>    -8.7951    -0.0000    -0.0000 </r>
       <r>    -8.7219    -0.0001    -0.0000 </r>
       <r>    -8.6487    -0.0007    -0.0001 </r>
       <r>    -8.5754    -0.0032    -0.0003 </r>
       <r>    -8.5022    -0.0105    -0.0011 </r>
       <r>    -8.4290    -0.0221    -0.0027 </r>
       <r>    -8.3557    -0.0172    -0.0039 </r>
       <r>    -8.2825     0.0525    -0.0001 </r>
       <r>    -8.2093     0.2158     0.0157 </r>
       <r>    -8.1360     0.3997     0.0450 </r>
       <r>    -8.0628     0.4579     0.0785 </r>
       <r>    -7.9895     0.3365     0.1032 </r>
       <r>    -7.9163     0.1443     0.1137 </r>
       <r>    -7.8431     0.0150     0.1148 </r>
       <r>    -7.7698    -0.0238     0.1131 </r>
       <r>    -7.6966    -0.0184     0.1117 </r>
       <r>    -7.6234    -0.0099     0.1110 </r>
       <r>    -7.5501    -0.0118     0.1101 </r>
       <r>    -7.4769    -0.0220     0.1085 </r>
       <r>    -7.4037    -0.0192     0.1071 </r>
       <r>    -7.3304     0.0432     0.1103 </r>
       <r>    -7.2572     0.1928     0.1244 </r>
       <r>    -7.1840     0.3582     0.1506 </r>
       <r>    -7.1107     0.4114     0.1808 </r>
       <r>    -7.0375     0.3644     0.2074 </r>
       <r>    -6.9643     0.4159     0.2379 </r>
       <r>    -6.8910     0.6633     0.2865 </r>
       <r>    -6.8178     0.8832     0.3512 </r>
       <r>    -6.7446     0.7932     0.4092 </r>
       <r>    -6.6713     0.4332     0.4410 </r>
       <r>    -6.5981     0.0962     0.4480 </r>
       <r>    -6.5248    -0.0128     0.4471 </r>
       <r>    -6.4516     0.0973     0.4542 </r>
       <r>    -6.3784     0.3019     0.4763 </r>
       <r>    -6.3051     0.4930     0.5124 </r>
       <r>    -6.2319     0.6648     0.5611 </r>
       <r>    -6.1587     0.8348     0.6222 </r>
       <r>    -6.0854     0.9224     0.6898 </r>
       <r>    -6.0122     0.8829     0.7545 </r>
       <r>    -5.9390     0.8564     0.8172 </r>
       <r>    -5.8657     0.9798     0.8889 </r>
       <r>    -5.7925     1.2132     0.9778 </r>
       <r>    -5.7193     1.4317     1.0826 </r>
       <r>    -5.6460     1.4749     1.1906 </r>
       <r>    -5.5728     1.1946     1.2781 </r>
       <r>    -5.4996     0.6598     1.3264 </r>
       <r>    -5.4263     0.1598     1.3381 </r>
       <r>    -5.3531    -0.0752     1.3326 </r>
       <r>    -5.2799    -0.0113     1.3318 </r>
       <r>    -5.2066     0.2526     1.3503 </r>
       <r>    -5.1334     0.5773     1.3926 </r>
       <r>    -5.0601     1.0176     1.4671 </r>
       <r>    -4.9869     1.9657     1.6111 </r>
       <r>    -4.9137     3.5627     1.8720 </r>
       <r>    -4.8404     4.9453     2.2342 </r>
       <r>    -4.7672     4.8665     2.5905 </r>
       <r>    -4.6940     3.2298     2.8271 </r>
       <r>    -4.6207     1.2498     2.9186 </r>
       <r>    -4.5475     0.0167     2.9198 </r>
       <r>    -4.4743    -0.3961     2.8908 </r>
       <r>    -4.4010    -0.3843     2.8627 </r>
       <r>    -4.3278     0.0131     2.8636 </r>
       <r>    -4.2546     1.1255     2.9461 </r>
       <r>    -4.1813     2.8849     3.1573 </r>
       <r>    -4.1081     4.3188     3.4736 </r>
       <r>    -4.0349     4.3317     3.7909 </r>
       <r>    -3.9616     3.0190     4.0120 </r>
       <r>    -3.8884     1.6366     4.1318 </r>
       <r>    -3.8152     1.2021     4.2198 </r>
       <r>    -3.7419     1.6476     4.3405 </r>
       <r>    -3.6687     2.4183     4.5176 </r>
       <r>    -3.5955     3.3130     4.7602 </r>
       <r>    -3.5222     4.3494     5.0788 </r>
       <r>    -3.4490     5.2592     5.4639 </r>
       <r>    -3.3757     5.7474     5.8848 </r>
       <r>    -3.3025     6.0540     6.3282 </r>
       <r>    -3.2293     6.6775     6.8172 </r>
       <r>    -3.1560     7.6681     7.3788 </r>
       <r>    -3.0828     8.6667     8.0135 </r>
       <r>    -3.0096     9.3490     8.6982 </r>
       <r>    -2.9363     9.3970     9.3864 </r>
       <r>    -2.8631     8.5562    10.0130 </r>
       <r>    -2.7899     7.2268    10.5422 </r>
       <r>    -2.7166     6.5186    11.0196 </r>
       <r>    -2.6434     7.1048    11.5399 </r>
       <r>    -2.5702     8.3367    12.1505 </r>
       <r>    -2.4969     9.2345    12.8268 </r>
       <r>    -2.4237     9.9068    13.5523 </r>
       <r>    -2.3505    10.9011    14.3506 </r>
       <r>    -2.2772    11.7798    15.2133 </r>
       <r>    -2.2040    11.9031    16.0850 </r>
       <r>    -2.1308    12.1295    16.9733 </r>
       <r>    -2.0575    13.8328    17.9864 </r>
       <r>    -1.9843    16.3398    19.1830 </r>
       <r>    -1.9110    17.3148    20.4511 </r>
       <r>    -1.8378    15.8881    21.6146 </r>
       <r>    -1.7646    13.6671    22.6156 </r>
       <r>    -1.6913    12.3961    23.5234 </r>
       <r>    -1.6181    11.9446    24.3981 </r>
       <r>    -1.5449    11.0402    25.2067 </r>
       <r>    -1.4716     9.3527    25.8916 </r>
       <r>    -1.3984     8.2024    26.4923 </r>
       <r>    -1.3252     9.1507    27.1625 </r>
       <r>    -1.2519    12.4666    28.0755 </r>
       <r>    -1.1787    16.9603    29.3175 </r>
       <r>    -1.1055    20.5120    30.8197 </r>
       <r>    -1.0322    21.1122    32.3659 </r>
       <r>    -0.9590    18.7605    33.7398 </r>
       <r>    -0.8858    16.0715    34.9168 </r>
       <r>    -0.8125    15.6106    36.0601 </r>
       <r>    -0.7393    17.1075    37.3129 </r>
       <r>    -0.6661    18.4389    38.6633 </r>
       <r>    -0.5928    18.2836    40.0023 </r>
       <r>    -0.5196    16.6093    41.2187 </r>
       <r>    -0.4463    13.7530    42.2259 </r>
       <r>    -0.3731    10.2638    42.9775 </r>
       <r>    -0.2999     6.9768    43.4885 </r>
       <r>    -0.2266     4.4686    43.8157 </r>
       <r>    -0.1534     2.6865    44.0125 </r>
       <r>    -0.0802     1.3430    44.1108 </r>
       <r>    -0.0069     0.3848    44.1390 </r>
       <r>     0.0663    -0.1176    44.1304 </r>
       <r>     0.1395    -0.2536    44.1118 </r>
       <r>     0.2128    -0.1786    44.0988 </r>
       <r>     0.2860     0.1139    44.1071 </r>
       <r>     0.3592     0.7018    44.1585 </r>
       <r>     0.4325     1.4669    44.2659 </r>
       <r>     0.5057     2.1408    44.4227 </r>
       <r>     0.5789     2.5787    44.6115 </r>
       <r>     0.6522     2.6923    44.8087 </r>
       <r>     0.7254     2.2908    44.9765 </r>
       <r>     0.7986     1.4283    45.0811 </r>
       <r>     0.8719     0.6463    45.1284 </r>
       <r>     0.9451     0.4349    45.1603 </r>
       <r>     1.0183     0.6586    45.2085 </r>
       <r>     1.0916     0.7928    45.2666 </r>
       <r>     1.1648     0.5960    45.3102 </r>
       <r>     1.2381     0.3332    45.3346 </r>
       <r>     1.3113     0.3484    45.3601 </r>
       <r>     1.3845     0.6079    45.4046 </r>
       <r>     1.4578     0.8171    45.4645 </r>
       <r>     1.5310     0.9258    45.5323 </r>
       <r>     1.6042     1.1986    45.6201 </r>
       <r>     1.6775     1.6305    45.7395 </r>
       <r>     1.7507     1.7288    45.8661 </r>
       <r>     1.8239     1.2174    45.9552 </r>
       <r>     1.8972     0.5699    45.9970 </r>
       <r>     1.9704     0.4888    46.0328 </r>
       <r>     2.0436     1.0609    46.1105 </r>
       <r>     2.1169     1.6468    46.2311 </r>
       <r>     2.1901     1.6406    46.3512 </r>
       <r>     2.2633     1.1983    46.4390 </r>
       <r>     2.3366     0.9324    46.5072 </r>
       <r>     2.4098     1.0574    46.5847 </r>
       <r>     2.4830     1.3207    46.6814 </r>
       <r>     2.5563     1.5849    46.7975 </r>
       <r>     2.6295     1.8870    46.9357 </r>
       <r>     2.7028     2.0819    47.0881 </r>
       <r>     2.7760     1.9866    47.2336 </r>
       <r>     2.8492     1.7323    47.3605 </r>
       <r>     2.9225     1.5789    47.4761 </r>
       <r>     2.9957     1.5298    47.5882 </r>
       <r>     3.0689     1.3531    47.6872 </r>
       <r>     3.1422     0.9236    47.7549 </r>
       <r>     3.2154     0.4070    47.7847 </r>
       <r>     3.2886     0.0556    47.7888 </r>
       <r>     3.3619    -0.0639    47.7841 </r>
       <r>     3.4351    -0.0579    47.7798 </r>
       <r>     3.5083    -0.0394    47.7770 </r>
       <r>     3.5816    -0.0607    47.7725 </r>
       <r>     3.6548    -0.1229    47.7635 </r>
       <r>     3.7280    -0.1342    47.7537 </r>
       <r>     3.8013     0.1500    47.7647 </r>
       <r>     3.8745     0.9738    47.8360 </r>
       <r>     3.9477     2.1820    47.9958 </r>
       <r>     4.0210     3.1182    48.2241 </r>
       <r>     4.0942     3.2436    48.4617 </r>
       <r>     4.1675     2.7686    48.6645 </r>
       <r>     4.2407     2.3230    48.8346 </r>
       <r>     4.3139     2.1372    48.9911 </r>
       <r>     4.3872     1.9482    49.1338 </r>
       <r>     4.4604     1.5640    49.2483 </r>
       <r>     4.5336     1.1043    49.3292 </r>
       <r>     4.6069     0.7296    49.3826 </r>
       <r>     4.6801     0.4428    49.4150 </r>
       <r>     4.7533     0.2306    49.4319 </r>
       <r>     4.8266     0.2243    49.4484 </r>
       <r>     4.8998     0.5598    49.4894 </r>
       <r>     4.9730     1.1141    49.5709 </r>
       <r>     5.0463     1.5139    49.6818 </r>
       <r>     5.1195     1.4484    49.7879 </r>
       <r>     5.1927     0.9374    49.8565 </r>
       <r>     5.2660     0.2955    49.8782 </r>
       <r>     5.3392    -0.0835    49.8721 </r>
       <r>     5.4124     0.1426    49.8825 </r>
       <r>     5.4857     1.1475    49.9665 </r>
       <r>     5.5589     2.6129    50.1579 </r>
       <r>     5.6321     3.6348    50.4241 </r>
       <r>     5.7054     3.4571    50.6773 </r>
       <r>     5.7786     2.3535    50.8496 </r>
       <r>     5.8519     1.3659    50.9497 </r>
       <r>     5.9251     1.1929    51.0370 </r>
       <r>     5.9983     1.6860    51.1605 </r>
       <r>     6.0716     2.2632    51.3262 </r>
       <r>     6.1448     2.4616    51.5065 </r>
       <r>     6.2180     2.2227    51.6693 </r>
       <r>     6.2913     1.8844    51.8073 </r>
       <r>     6.3645     1.8714    51.9444 </r>
       <r>     6.4377     2.2656    52.1103 </r>
       <r>     6.5110     2.6790    52.3065 </r>
       <r>     6.5842     2.7137    52.5052 </r>
       <r>     6.6574     2.4474    52.6844 </r>
       <r>     6.7307     2.1445    52.8415 </r>
       <r>     6.8039     1.7449    52.9693 </r>
       <r>     6.8771     1.1945    53.0568 </r>
       <r>     6.9504     0.9945    53.1296 </r>
       <r>     7.0236     1.6822    53.2528 </r>
       <r>     7.0968     2.8508    53.4616 </r>
       <r>     7.1701     3.3651    53.7080 </r>
       <r>     7.2433     2.7091    53.9064 </r>
       <r>     7.3166     1.5743    54.0217 </r>
       <r>     7.3898     0.8528    54.0842 </r>
       <r>     7.4630     0.6253    54.1300 </r>
       <r>     7.5363     0.5413    54.1696 </r>
       <r>     7.6095     0.6737    54.2189 </r>
       <r>     7.6827     1.4215    54.3230 </r>
       <r>     7.7560     2.7644    54.5255 </r>
       <r>     7.8292     4.1055    54.8262 </r>
       <r>     7.9024     4.8675    55.1826 </r>
       <r>     7.9757     4.8863    55.5405 </r>
       <r>     8.0489     4.2453    55.8514 </r>
       <r>     8.1221     3.2188    56.0871 </r>
       <r>     8.1954     2.3956    56.2626 </r>
       <r>     8.2686     2.2484    56.4272 </r>
       <r>     8.3418     2.5066    56.6108 </r>
       <r>     8.4151     2.4604    56.7910 </r>
       <r>     8.4883     1.8519    56.9266 </r>
       <r>     8.5615     1.0771    57.0055 </r>
       <r>     8.6348     0.6368    57.0521 </r>
       <r>     8.7080     0.7287    57.1055 </r>
       <r>     8.7813     1.2528    57.1972 </r>
       <r>     8.8545     1.8584    57.3333 </r>
       <r>     8.9277     2.0836    57.4859 </r>
       <r>     9.0010     1.8247    57.6196 </r>
       <r>     9.0742     1.5458    57.7328 </r>
       <r>     9.1474     1.7152    57.8584 </r>
       <r>     9.2207     2.2420    58.0226 </r>
       <r>     9.2939     2.7081    58.2209 </r>
       <r>     9.3671     2.9171    58.4345 </r>
       <r>     9.4404     2.9677    58.6519 </r>
       <r>     9.5136     2.9849    58.8705 </r>
       <r>     9.5868     3.0460    59.0935 </r>
       <r>     9.6601     3.1699    59.3257 </r>
       <r>     9.7333     3.1777    59.5584 </r>
       <r>     9.8065     2.7989    59.7634 </r>
       <r>     9.8798     2.0063    59.9103 </r>
       <r>     9.9530     1.0794    59.9894 </r>
       <r>    10.0262     0.3554    60.0154 </r>
       <r>    10.0995    -0.0120    60.0145 </r>
       <r>    10.1727    -0.0974    60.0074 </r>
       <r>    10.2459    -0.0656    60.0026 </r>
       <r>    10.3192    -0.0263    60.0007 </r>
       <r>    10.3924    -0.0072    60.0001 </r>
       <r>    10.4657    -0.0014    60.0000 </r>
       <r>    10.5389    -0.0002    60.0000 </r>
       <r>    10.6121    -0.0000    60.0000 </r>
       <r>    10.6854    -0.0000    60.0000 </r>
       <r>    10.7586    -0.0000    60.0000 </r>
       <r>    10.8318    -0.0000    60.0000 </r>
       <r>    10.9051    -0.0000    60.0000 </r>
       <r>    10.9783    -0.0000    60.0000 </r>
       <r>    11.0515    -0.0000    60.0000 </r>
       <r>    11.1248    -0.0000    60.0000 </r>
       <r>    11.1980     0.0000    60.0000 </r>
       <r>    11.2712     0.0000    60.0000 </r>
       <r>    11.3445     0.0000    60.0000 </r>
       <r>    11.4177     0.0000    60.0000 </r>
       <r>    11.4909     0.0000    60.0000 </r>
       <r>    11.5642     0.0000    60.0000 </r>
       <r>    11.6374     0.0000    60.0000 </r>
       <r>    11.7106     0.0000    60.0000 </r>
       <r>    11.7839     0.0000    60.0000 </r>
       <r>    11.8571     0.0000    60.0000 </r>
      </set>
     </set>
    </array>
   </total>
  </dos>
 </calculation>
 <structure name="finalpos" >
  <crystal>
   <varray name="basis" >
    <v>       3.63000011       0.00000000       0.00000000 </v>
    <v>       0.00000000       2.56679773       0.00000000 </v>
    <v>       0.00000000       0.00000000      23.98379135 </v>
   </varray>
   <i name="volume">    223.46840188 </i>
   <varray name="rec_basis" >
    <v>       0.27548208       0.00000000       0.00000000 </v>
    <v>       0.00000000       0.38959050       0.00000000 </v>
    <v>       0.00000000       0.00000000       0.04169483 </v>
   </varray>
  </crystal>
  <varray name="positions" >
   <v>       0.00000000       0.00372347      -0.00457784 </v>
   <v>       0.50000000       0.50391888       0.04273740 </v>
   <v>       0.00000000       0.00452394       0.09716224 </v>
   <v>       0.50000000       0.50578069       0.14936444 </v>
   <v>       0.00000000       0.00679512       0.20231067 </v>
   <v>       0.50000000       0.50862673       0.25437538 </v>
   <v>       0.00000000       0.00929255       0.30886073 </v>
   <v>       0.50000000       0.50913051       0.35588796 </v>
   <v>       1.00000000       0.56081744       0.47408954 </v>
   <v>       1.00000000       0.67802518       0.44511911 </v>
  </varray>
 </structure>
</modeling>
