unknown system                          
           1
     3.630000    0.000000    0.000000
     0.000000    2.566798    0.000000
     0.000000    0.000000   23.983791
   Cu   H 
     8     2
Direct configuration=     1
   0.00000000  0.00000000  0.00000000
   0.50000000  0.50000000  0.05351109
   0.00000000  0.00000000  0.10468148
   0.50000000  0.50000000  0.15792996
   0.00000000  0.00000000  0.21070899
   0.50000000  0.50000000  0.26289048
   0.00000000  0.00000000  0.31711592
   0.50000000  0.50000000  0.36467590
   1.00000000  0.50000000  0.42690792
   1.00000000  0.79063451  0.42690792
Direct configuration=     2
   0.00000000  0.00000331  0.00102223
   0.50000000  0.50000484  0.05260271
   0.00000000 -0.00004253  0.10463780
   0.50000000  0.50004752  0.15812313
   0.00000000 -0.00000556  0.21042099
   0.50000000  0.49983235  0.26285278
   0.00000000  0.00092046  0.31662793
   0.50000000  0.50071855  0.36391015
   1.00000000  0.48789217  0.42761332
   1.00000000  0.80126340  0.42751862
Direct configuration=     3
   0.00000000  0.00000284  0.00087716
   0.50000000  0.50000415  0.05273163
   0.00000000 -0.00003650  0.10464400
   0.50000000  0.50004078  0.15809572
   0.00000000 -0.00000477  0.21046186
   0.50000000  0.49985614  0.26285813
   0.00000000  0.00078983  0.31669718
   0.50000000  0.50061658  0.36401883
   1.00000000  0.48961051  0.42751321
   1.00000000  0.79975495  0.42743195
Direct configuration=     4
   0.00000000  0.00000696  0.00196204
   0.50000000  0.50000697  0.05182971
   0.00000000 -0.00008370  0.10462055
   0.50000000  0.50009088  0.15822032
   0.00000000 -0.00001894  0.21012805
   0.50000000  0.49969558  0.26273395
   0.00000000  0.00183518  0.31613820
   0.50000000  0.50149025  0.36319718
   1.00000000  0.49027084  0.42834694
   1.00000000  0.79734049  0.42815272
Direct configuration=     5
   0.00000000  0.00001708  0.00462337
   0.50000000  0.50001389  0.04961720
   0.00000000 -0.00019951  0.10456302
   0.50000000  0.50021377  0.15852597
   0.00000000 -0.00005370  0.20930919
   0.50000000  0.49930169  0.26242931
   0.00000000  0.00439953  0.31476696
   0.50000000  0.50363348  0.36118160
   1.00000000  0.49189070  0.43039219
   1.00000000  0.79141756  0.42992084
Direct configuration=     6
   0.00000000  0.00004125  0.00453528
   0.50000000  0.50002129  0.04986127
   0.00000000 -0.00018630  0.10482058
   0.50000000  0.50021783  0.15804004
   0.00000000 -0.00008500  0.20906714
   0.50000000  0.49953462  0.26173529
   0.00000000  0.00491833  0.31440747
   0.50000000  0.50452316  0.36082693
   1.00000000  0.49399345  0.43133127
   1.00000000  0.78765586  0.43070440
Direct configuration=     7
   0.00000000  0.00007987  0.00439454
   0.50000000  0.50003311  0.05025120
   0.00000000 -0.00016519  0.10523209
   0.50000000  0.50022431  0.15726366
   0.00000000 -0.00013500  0.20868041
   0.50000000  0.49990678  0.26062645
   0.00000000  0.00574722  0.31383309
   0.50000000  0.50594461  0.36026027
   1.00000000  0.49735304  0.43283165
   1.00000000  0.78164577  0.43195629
Direct configuration=     8
   0.00000000  0.00008739  0.00435613
   0.50000000  0.50003627  0.05033033
   0.00000000 -0.00015904  0.10528387
   0.50000000  0.50022447  0.15712799
   0.00000000 -0.00014062  0.20861497
   0.50000000  0.49998358  0.26043904
   0.00000000  0.00588359  0.31373553
   0.50000000  0.50618271  0.36015920
   1.00000000  0.49674152  0.43310608
   1.00000000  0.78179462  0.43217650
Direct configuration=     9
   0.00000000  0.00010997  0.00424093
   0.50000000  0.50004575  0.05056772
   0.00000000 -0.00014058  0.10543921
   0.50000000  0.50022495  0.15672096
   0.00000000 -0.00015747  0.20841864
   0.50000000  0.50021398  0.25987682
   0.00000000  0.00629270  0.31344286
   0.50000000  0.50689703  0.35985600
   1.00000000  0.49490698  0.43392938
   1.00000000  0.78224119  0.43283713
Direct configuration=    10
   0.00000000  0.00015511  0.00401053
   0.50000000  0.50006472  0.05104249
   0.00000000 -0.00010365  0.10574990
   0.50000000  0.50022592  0.15590690
   0.00000000 -0.00019117  0.20802599
   0.50000000  0.50067479  0.25875237
   0.00000000  0.00711093  0.31285750
   0.50000000  0.50832567  0.35924960
   1.00000000  0.49123789  0.43557598
   1.00000000  0.78313431  0.43415839
Direct configuration=    11
   0.00000000  0.00024540  0.00354973
   0.50000000  0.50010266  0.05199203
   0.00000000 -0.00002980  0.10637128
   0.50000000  0.50022785  0.15427879
   0.00000000 -0.00025857  0.20724069
   0.50000000  0.50159640  0.25650348
   0.00000000  0.00874737  0.31168679
   0.50000000  0.51118294  0.35803679
   1.00000000  0.48389971  0.43886917
   1.00000000  0.78492055  0.43680091
Direct configuration=    12
   0.00000000  0.00019893  0.00378687
   0.50000000  0.50008314  0.05150337
   0.00000000 -0.00006780  0.10605150
   0.50000000  0.50022686  0.15511666
   0.00000000 -0.00022389  0.20764483
   0.50000000  0.50112211  0.25766082
   0.00000000  0.00790521  0.31228927
   0.50000000  0.50971250  0.35866094
   1.00000000  0.48767615  0.43717440
   1.00000000  0.78400130  0.43544099
Direct configuration=    13
   0.00000000  0.00020439  0.00375905
   0.50000000  0.50008543  0.05156070
   0.00000000 -0.00006334  0.10608902
   0.50000000  0.50022697  0.15501835
   0.00000000 -0.00022796  0.20759741
   0.50000000  0.50117776  0.25752503
   0.00000000  0.00800402  0.31221858
   0.50000000  0.50988504  0.35858770
   1.00000000  0.48723304  0.43737325
   1.00000000  0.78410916  0.43560056
Direct configuration=    14
   0.00000000  0.00020136  0.00377448
   0.50000000  0.50008416  0.05152889
   0.00000000 -0.00006582  0.10606821
   0.50000000  0.50022691  0.15507289
   0.00000000 -0.00022570  0.20762372
   0.50000000  0.50114689  0.25760036
   0.00000000  0.00794920  0.31225780
   0.50000000  0.50978932  0.35862833
   1.00000000  0.48747887  0.43726293
   1.00000000  0.78404932  0.43551203
Direct configuration=    15
   0.00000000  0.00020287  0.00376676
   0.50000000  0.50008479  0.05154480
   0.00000000 -0.00006458  0.10607862
   0.50000000  0.50022694  0.15504562
   0.00000000 -0.00022683  0.20761056
   0.50000000  0.50116232  0.25756269
   0.00000000  0.00797661  0.31223819
   0.50000000  0.50983718  0.35860802
   1.00000000  0.48735595  0.43731809
   1.00000000  0.78407924  0.43555630
Direct configuration=    16
   0.00000000  0.00020915  0.00376445
   0.50000000  0.50009097  0.05151958
   0.00000000 -0.00005208  0.10589012
   0.50000000  0.50021365  0.15502376
   0.00000000 -0.00019714  0.20756403
   0.50000000  0.50126726  0.25754255
   0.00000000  0.00810546  0.31215780
   0.50000000  0.51003136  0.35845937
   1.00000000  0.48699211  0.43762256
   1.00000000  0.78397378  0.43578542
Direct configuration=    17
   0.00000000  0.00022796  0.00375752
   0.50000000  0.50010952  0.05144392
   0.00000000 -0.00001457  0.10532464
   0.50000000  0.50017376  0.15495820
   0.00000000 -0.00010809  0.20742445
   0.50000000  0.50158205  0.25748210
   0.00000000  0.00849201  0.31191664
   0.50000000  0.51061389  0.35801342
   1.00000000  0.48590060  0.43853597
   1.00000000  0.78365739  0.43647280
Direct configuration=    18
   0.00000000  0.00026559  0.00374364
   0.50000000  0.50014661  0.05129261
   0.00000000  0.00006044  0.10419367
   0.50000000  0.50009399  0.15482707
   0.00000000  0.00007001  0.20714527
   0.50000000  0.50221164  0.25736121
   0.00000000  0.00926509  0.31143433
   0.50000000  0.51177896  0.35712151
   1.00000000  0.48371756  0.44036277
   1.00000000  0.78302462  0.43784755
Direct configuration=    19
   0.00000000  0.00034085  0.00371590
   0.50000000  0.50022079  0.05098999
   0.00000000  0.00021047  0.10193175
   0.50000000  0.49993444  0.15456480
   0.00000000  0.00042621  0.20658692
   0.50000000  0.50347082  0.25711943
   0.00000000  0.01081127  0.31046969
   0.50000000  0.51410909  0.35533771
   1.00000000  0.47935149  0.44401639
   1.00000000  0.78175908  0.44059706
Direct configuration=    20
   0.00000000  0.00030317  0.00372979
   0.50000000  0.50018366  0.05114149
   0.00000000  0.00013536  0.10306414
   0.50000000  0.50001431  0.15469610
   0.00000000  0.00024789  0.20686645
   0.50000000  0.50284044  0.25724047
   0.00000000  0.01003721  0.31095262
   0.50000000  0.51294255  0.35623074
   1.00000000  0.48153728  0.44218728
   1.00000000  0.78239265  0.43922057
Direct configuration=    21
   0.00000000  0.00032625  0.00349420
   0.50000000  0.50021563  0.05080988
   0.00000000  0.00017006  0.10273625
   0.50000000  0.49999789  0.15471248
   0.00000000  0.00042392  0.20655604
   0.50000000  0.50317609  0.25718833
   0.00000000  0.01038675  0.31079098
   0.50000000  0.51339379  0.35605888
   1.00000000  0.48436152  0.44307439
   1.00000000  0.77818260  0.43990821
Direct configuration=    22
   0.00000000  0.00033724  0.00338202
   0.50000000  0.50023086  0.05065197
   0.00000000  0.00018658  0.10258012
   0.50000000  0.49999007  0.15472028
   0.00000000  0.00050775  0.20640822
   0.50000000  0.50333593  0.25716349
   0.00000000  0.01055320  0.31071400
   0.50000000  0.51360867  0.35597703
   1.00000000  0.48570643  0.44349684
   1.00000000  0.77617778  0.44023567
Direct configuration=    23
   0.00000000  0.00037576  0.00290470
   0.50000000  0.50028502  0.05011176
   0.00000000  0.00022163  0.10252813
   0.50000000  0.50002859  0.15470082
   0.00000000  0.00077314  0.20596269
   0.50000000  0.50367285  0.25706279
   0.00000000  0.01086363  0.31060949
   0.50000000  0.51395324  0.35607258
   1.00000000  0.48488544  0.44449150
   1.00000000  0.77557520  0.44088520
Direct configuration=    24
   0.00000000  0.00049132  0.00147273
   0.50000000  0.50044749  0.04849111
   0.00000000  0.00032681  0.10237219
   0.50000000  0.50014414  0.15464243
   0.00000000  0.00156929  0.20462608
   0.50000000  0.50468363  0.25676067
   0.00000000  0.01179492  0.31029593
   0.50000000  0.51498696  0.35635923
   1.00000000  0.48242247  0.44747547
   1.00000000  0.77376747  0.44283381
Direct configuration=    25
   0.00000000  0.00052952  0.00099938
   0.50000000  0.50050119  0.04795540
   0.00000000  0.00036157  0.10232064
   0.50000000  0.50018234  0.15462313
   0.00000000  0.00183246  0.20418425
   0.50000000  0.50501775  0.25666081
   0.00000000  0.01210276  0.31019229
   0.50000000  0.51532867  0.35645398
   1.00000000  0.48160832  0.44846184
   1.00000000  0.77316992  0.44347793
Direct configuration=    26
   0.00000000  0.00062627  0.00035177
   0.50000000  0.50061347  0.04735522
   0.00000000  0.00042412  0.10175880
   0.50000000  0.50044297  0.15390090
   0.00000000  0.00229302  0.20420766
   0.50000000  0.50555432  0.25659495
   0.00000000  0.01243564  0.31005359
   0.50000000  0.51564101  0.35673308
   1.00000000  0.47955183  0.45001636
   1.00000000  0.77305186  0.44435733
Direct configuration=    27
   0.00000000  0.00081967 -0.00094293
   0.50000000  0.50083793  0.04615536
   0.00000000  0.00054916  0.10063559
   0.50000000  0.50096401  0.15245704
   0.00000000  0.00321376  0.20425447
   0.50000000  0.50662702  0.25646328
   0.00000000  0.01310113  0.30977629
   0.50000000  0.51626544  0.35729105
   1.00000000  0.47544054  0.45312411
   1.00000000  0.77281586  0.44611539
Direct configuration=    28
   0.00000000  0.00087937 -0.00129316
   0.50000000  0.50089574  0.04584253
   0.00000000  0.00060013  0.10027305
   0.50000000  0.50114096  0.15204365
   0.00000000  0.00347727  0.20428940
   0.50000000  0.50691516  0.25641349
   0.00000000  0.01326179  0.30974629
   0.50000000  0.51640385  0.35742447
   1.00000000  0.47681569  0.45394671
   1.00000000  0.77024454  0.44664323
Direct configuration=    29
   0.00000000  0.00101899 -0.00211222
   0.50000000  0.50103095  0.04511092
   0.00000000  0.00071933  0.09942519
   0.50000000  0.50155480  0.15107689
   0.00000000  0.00409354  0.20437108
   0.50000000  0.50758902  0.25629705
   0.00000000  0.01363751  0.30967611
   0.50000000  0.51672755  0.35773648
   1.00000000  0.48003171  0.45587048
   1.00000000  0.76423111  0.44787768
Direct configuration=    30
   0.00000000  0.00100881 -0.00205248
   0.50000000  0.50102109  0.04516428
   0.00000000  0.00071063  0.09948703
   0.50000000  0.50152462  0.15114741
   0.00000000  0.00404859  0.20436512
   0.50000000  0.50753987  0.25630554
   0.00000000  0.01361011  0.30968123
   0.50000000  0.51670394  0.35771372
   1.00000000  0.47979713  0.45573016
   1.00000000  0.76466974  0.44778763
Direct configuration=    31
   0.00000000  0.00101618 -0.00209574
   0.50000000  0.50102823  0.04512564
   0.00000000  0.00071693  0.09944225
   0.50000000  0.50154647  0.15109634
   0.00000000  0.00408114  0.20436944
   0.50000000  0.50757546  0.25629939
   0.00000000  0.01362995  0.30967752
   0.50000000  0.51672104  0.35773020
   1.00000000  0.47996699  0.45583177
   1.00000000  0.76435211  0.44785284
Direct configuration=    32
   0.00000000  0.00101249 -0.00207411
   0.50000000  0.50102466  0.04514496
   0.00000000  0.00071378  0.09946464
   0.50000000  0.50153555  0.15112187
   0.00000000  0.00406486  0.20436728
   0.50000000  0.50755767  0.25630247
   0.00000000  0.01362003  0.30967938
   0.50000000  0.51671249  0.35772196
   1.00000000  0.47988206  0.45578096
   1.00000000  0.76451093  0.44782023
Direct configuration=    33
   0.00000000  0.00101378 -0.00208169
   0.50000000  0.50102591  0.04513819
   0.00000000  0.00071488  0.09945680
   0.50000000  0.50153937  0.15111293
   0.00000000  0.00407056  0.20436804
   0.50000000  0.50756390  0.25630139
   0.00000000  0.01362351  0.30967873
   0.50000000  0.51671548  0.35772485
   1.00000000  0.47991182  0.45579876
   1.00000000  0.76445528  0.44783166
Direct configuration=    34
   0.00000000  0.00101262 -0.00207485
   0.50000000  0.50102478  0.04514430
   0.00000000  0.00071389  0.09946387
   0.50000000  0.50153592  0.15112100
   0.00000000  0.00406542  0.20436736
   0.50000000  0.50755828  0.25630236
   0.00000000  0.01362037  0.30967931
   0.50000000  0.51671278  0.35772224
   1.00000000  0.47988497  0.45578270
   1.00000000  0.76450549  0.44782135
Direct configuration=    35
   0.00000000  0.00101320 -0.00207827
   0.50000000  0.50102535  0.04514124
   0.00000000  0.00071439  0.09946033
   0.50000000  0.50153765  0.15111696
   0.00000000  0.00406799  0.20436770
   0.50000000  0.50756109  0.25630188
   0.00000000  0.01362194  0.30967902
   0.50000000  0.51671413  0.35772354
   1.00000000  0.47989839  0.45579073
   1.00000000  0.76448039  0.44782650
Direct configuration=    36
   0.00000000  0.00101287 -0.00207634
   0.50000000  0.50102503  0.04514296
   0.00000000  0.00071411  0.09946233
   0.50000000  0.50153667  0.15111924
   0.00000000  0.00406654  0.20436751
   0.50000000  0.50755950  0.25630215
   0.00000000  0.01362106  0.30967918
   0.50000000  0.51671337  0.35772281
   1.00000000  0.47989083  0.45578621
   1.00000000  0.76449453  0.44782360
Direct configuration=    37
   0.00000000  0.00101304 -0.00207731
   0.50000000  0.50102519  0.04514210
   0.00000000  0.00071425  0.09946133
   0.50000000  0.50153716  0.15111810
   0.00000000  0.00406727  0.20436760
   0.50000000  0.50756030  0.25630201
   0.00000000  0.01362150  0.30967910
   0.50000000  0.51671375  0.35772318
   1.00000000  0.47989461  0.45578847
   1.00000000  0.76448746  0.44782505
Direct configuration=    38
   0.00000000  0.00101299 -0.00207701
   0.50000000  0.50102514  0.04514237
   0.00000000  0.00071420  0.09946164
   0.50000000  0.50153701  0.15111845
   0.00000000  0.00406704  0.20436757
   0.50000000  0.50756005  0.25630205
   0.00000000  0.01362136  0.30967913
   0.50000000  0.51671363  0.35772307
   1.00000000  0.47989345  0.45578778
   1.00000000  0.76448962  0.44782461
Direct configuration=    39
   0.00000000  0.00104211 -0.00223633
   0.50000000  0.50104198  0.04501901
   0.00000000  0.00077264  0.09930041
   0.50000000  0.50166110  0.15099201
   0.00000000  0.00420202  0.20431647
   0.50000000  0.50767362  0.25624676
   0.00000000  0.01366694  0.30975108
   0.50000000  0.51673284  0.35771559
   1.00000000  0.47976669  0.45621219
   1.00000000  0.76407456  0.44801247
Direct configuration=    40
   0.00000000  0.00112949 -0.00271429
   0.50000000  0.50109252  0.04464896
   0.00000000  0.00094794  0.09881671
   0.50000000  0.50203335  0.15061268
   0.00000000  0.00460697  0.20416317
   0.50000000  0.50801433  0.25608086
   0.00000000  0.01380368  0.30996693
   0.50000000  0.51679045  0.35769315
   1.00000000  0.47938641  0.45748542
   1.00000000  0.76282938  0.44857606
Direct configuration=    41
   0.00000000  0.00130425 -0.00367021
   0.50000000  0.50119358  0.04390884
   0.00000000  0.00129855  0.09784933
   0.50000000  0.50277786  0.14985403
   0.00000000  0.00541685  0.20385656
   0.50000000  0.50869573  0.25574907
   0.00000000  0.01407716  0.31039863
   0.50000000  0.51690567  0.35764827
   1.00000000  0.47862583  0.46003188
   1.00000000  0.76033902  0.44970325
Direct configuration=    42
   0.00000000  0.00135976 -0.00396809
   0.50000000  0.50123276  0.04365777
   0.00000000  0.00145541  0.09762642
   0.50000000  0.50304575  0.14973280
   0.00000000  0.00569024  0.20368029
   0.50000000  0.50887041  0.25562742
   0.00000000  0.01413359  0.31050266
   0.50000000  0.51687697  0.35758284
   1.00000000  0.47980051  0.46082568
   1.00000000  0.75816911  0.45006186
Direct configuration=    43
   0.00000000  0.00141144 -0.00424542
   0.50000000  0.50126924  0.04342402
   0.00000000  0.00160145  0.09741887
   0.50000000  0.50329516  0.14961993
   0.00000000  0.00594478  0.20351616
   0.50000000  0.50903304  0.25551415
   0.00000000  0.01418613  0.31059952
   0.50000000  0.51685025  0.35752192
   1.00000000  0.48089418  0.46156474
   1.00000000  0.75614883  0.45039575
Direct configuration=    44
   0.00000000  0.00143046 -0.00434752
   0.50000000  0.50128267  0.04333796
   0.00000000  0.00165521  0.09734247
   0.50000000  0.50338698  0.14957838
   0.00000000  0.00603849  0.20345574
   0.50000000  0.50909292  0.25547245
   0.00000000  0.01420548  0.31063518
   0.50000000  0.51684042  0.35749950
   1.00000000  0.48129682  0.46183683
   1.00000000  0.75540506  0.45051867
Direct configuration=    45
   0.00000000  0.00148938 -0.00459970
   0.50000000  0.50135450  0.04306901
   0.00000000  0.00187464  0.09720048
   0.50000000  0.50368363  0.14954998
   0.00000000  0.00631937  0.20322690
   0.50000000  0.50923826  0.25534921
   0.00000000  0.01423822  0.31063954
   0.50000000  0.51674003  0.35739543
   1.00000000  0.48135835  0.46273129
   1.00000000  0.75433813  0.45076751
Direct configuration=    46
   0.00000000  0.00154670 -0.00484503
   0.50000000  0.50142437  0.04280736
   0.00000000  0.00208812  0.09706234
   0.50000000  0.50397222  0.14952236
   0.00000000  0.00659263  0.20300427
   0.50000000  0.50937966  0.25522930
   0.00000000  0.01427008  0.31064378
   0.50000000  0.51664237  0.35729418
   1.00000000  0.48141821  0.46360149
   1.00000000  0.75330015  0.45100960
Direct configuration=    47
   0.00000000  0.00157159 -0.00495160
   0.50000000  0.50145472  0.04269371
   0.00000000  0.00218085  0.09700234
   0.50000000  0.50409758  0.14951037
   0.00000000  0.00671132  0.20290756
   0.50000000  0.50944108  0.25517722
   0.00000000  0.01428392  0.31064562
   0.50000000  0.51659994  0.35725020
   1.00000000  0.48144421  0.46397948
   1.00000000  0.75284929  0.45111475
Direct configuration=    48
   0.00000000  0.00164793 -0.00514961
   0.50000000  0.50160622  0.04241481
   0.00000000  0.00250145  0.09690105
   0.50000000  0.50445021  0.14949434
   0.00000000  0.00700165  0.20267444
   0.50000000  0.50961052  0.25504534
   0.00000000  0.01428477  0.31044909
   0.50000000  0.51642408  0.35709563
   1.00000000  0.48303902  0.46502008
   1.00000000  0.75006866  0.45138447
Direct configuration=    49
   0.00000000  0.00180461 -0.00555608
   0.50000000  0.50191722  0.04184230
   0.00000000  0.00315955  0.09669315
   0.50000000  0.50517407  0.14946145
   0.00000000  0.00759764  0.20219590
   0.50000000  0.50995833  0.25477461
   0.00000000  0.01428651  0.31004566
   0.50000000  0.51606309  0.35677833
   1.00000000  0.48631276  0.46715618
   1.00000000  0.74436073  0.45193814
Direct configuration=    50
   0.00000000  0.00190962 -0.00561692
   0.50000000  0.50216779  0.04177125
   0.00000000  0.00352292  0.09654050
   0.50000000  0.50552725  0.14924201
   0.00000000  0.00777207  0.20211536
   0.50000000  0.51017976  0.25466060
   0.00000000  0.01421215  0.30960439
   0.50000000  0.51581112  0.35660732
   1.00000000  0.48765386  0.46836139
   1.00000000  0.74187798  0.45204375
Direct configuration=    51
   0.00000000  0.00201017 -0.00567517
   0.50000000  0.50240771  0.04170321
   0.00000000  0.00387085  0.09639434
   0.50000000  0.50586542  0.14903190
   0.00000000  0.00793908  0.20203825
   0.50000000  0.51039178  0.25455142
   0.00000000  0.01414094  0.30918188
   0.50000000  0.51556987  0.35644357
   1.00000000  0.48893796  0.46951538
   1.00000000  0.73950073  0.45214487
Direct configuration=    52
   0.00000000  0.00207321 -0.00568910
   0.50000000  0.50253966  0.04169684
   0.00000000  0.00405473  0.09632468
   0.50000000  0.50602991  0.14891124
   0.00000000  0.00801358  0.20200285
   0.50000000  0.51050651  0.25448308
   0.00000000  0.01410014  0.30895197
   0.50000000  0.51544140  0.35635350
   1.00000000  0.49053653  0.47006518
   1.00000000  0.73733883  0.45222941
Direct configuration=    53
   0.00000000  0.00226235 -0.00573092
   0.50000000  0.50293550  0.04167771
   0.00000000  0.00460638  0.09611571
   0.50000000  0.50652340  0.14854927
   0.00000000  0.00823709  0.20189665
   0.50000000  0.51085071  0.25427806
   0.00000000  0.01397774  0.30826227
   0.50000000  0.51505599  0.35608329
   1.00000000  0.49533224  0.47171457
   1.00000000  0.73085312  0.45248304
Direct configuration=    54
   0.00000000  0.00226950 -0.00572230
   0.50000000  0.50292248  0.04169504
   0.00000000  0.00458553  0.09615229
   0.50000000  0.50646197  0.14858114
   0.00000000  0.00822043  0.20186436
   0.50000000  0.51082366  0.25424874
   0.00000000  0.01396877  0.30835656
   0.50000000  0.51506347  0.35607981
   1.00000000  0.49573925  0.47160534
   1.00000000  0.73057945  0.45246867
Direct configuration=    55
   0.00000000  0.00227150 -0.00571990
   0.50000000  0.50291886  0.04169987
   0.00000000  0.00457972  0.09616247
   0.50000000  0.50644486  0.14859002
   0.00000000  0.00821579  0.20185536
   0.50000000  0.51081612  0.25424058
   0.00000000  0.01396627  0.30838282
   0.50000000  0.51506555  0.35607884
   1.00000000  0.49585261  0.47157492
   1.00000000  0.73050324  0.45246466
Direct configuration=    56
   0.00000000  0.00227548 -0.00571510
   0.50000000  0.50291161  0.04170952
   0.00000000  0.00456810  0.09618285
   0.50000000  0.50641064  0.14860778
   0.00000000  0.00820651  0.20183738
   0.50000000  0.51080105  0.25422425
   0.00000000  0.01396127  0.30843534
   0.50000000  0.51506972  0.35607691
   1.00000000  0.49607933  0.47151407
   1.00000000  0.73035080  0.45245666
Direct configuration=    57
   0.00000000  0.00229904 -0.00569323
   0.50000000  0.50293255  0.04174470
   0.00000000  0.00458588  0.09621913
   0.50000000  0.50636180  0.14862735
   0.00000000  0.00819455  0.20180904
   0.50000000  0.51078944  0.25418594
   0.00000000  0.01392683  0.30850313
   0.50000000  0.51502709  0.35604470
   1.00000000  0.49613102  0.47150800
   1.00000000  0.73038630  0.45238089
Direct configuration=    58
   0.00000000  0.00234762 -0.00564814
   0.50000000  0.50297573  0.04181722
   0.00000000  0.00462253  0.09629394
   0.50000000  0.50626111  0.14866770
   0.00000000  0.00816989  0.20175061
   0.50000000  0.51076549  0.25410695
   0.00000000  0.01385585  0.30864291
   0.50000000  0.51493921  0.35597829
   1.00000000  0.49623758  0.47149549
   1.00000000  0.73045951  0.45222467
Direct configuration=    59
   0.00000000  0.00236133 -0.00563541
   0.50000000  0.50298791  0.04183769
   0.00000000  0.00463288  0.09631506
   0.50000000  0.50623269  0.14867909
   0.00000000  0.00816293  0.20173412
   0.50000000  0.51075873  0.25408465
   0.00000000  0.01383581  0.30868236
   0.50000000  0.51491440  0.35595955
   1.00000000  0.49626765  0.47149195
   1.00000000  0.73048017  0.45218059
Direct configuration=    60
   0.00000000  0.00238875 -0.00560996
   0.50000000  0.50301228  0.04187863
   0.00000000  0.00465357  0.09635728
   0.50000000  0.50617585  0.14870187
   0.00000000  0.00814901  0.20170114
   0.50000000  0.51074521  0.25404007
   0.00000000  0.01379574  0.30876125
   0.50000000  0.51486480  0.35592207
   1.00000000  0.49632780  0.47148489
   1.00000000  0.73052149  0.45209241
Direct configuration=    61
   0.00000000  0.00236768 -0.00562952
   0.50000000  0.50299356  0.04184717
   0.00000000  0.00463767  0.09632484
   0.50000000  0.50621953  0.14868437
   0.00000000  0.00815971  0.20172648
   0.50000000  0.51075560  0.25407433
   0.00000000  0.01382653  0.30870063
   0.50000000  0.51490292  0.35595087
   1.00000000  0.49628158  0.47149032
   1.00000000  0.73048974  0.45216016
Direct configuration=    62
   0.00000000  0.00237822 -0.00561974
   0.50000000  0.50300292  0.04186290
   0.00000000  0.00464562  0.09634106
   0.50000000  0.50619769  0.14869312
   0.00000000  0.00815436  0.20171381
   0.50000000  0.51075041  0.25405720
   0.00000000  0.01381113  0.30873094
   0.50000000  0.51488386  0.35593647
   1.00000000  0.49630469  0.47148760
   1.00000000  0.73050562  0.45212629
Direct configuration=    63
   0.00000000  0.00242336 -0.00556865
   0.50000000  0.50305000  0.04192052
   0.00000000  0.00467802  0.09637591
   0.50000000  0.50614352  0.14870498
   0.00000000  0.00813557  0.20169860
   0.50000000  0.51073349  0.25401976
   0.00000000  0.01375060  0.30877269
   0.50000000  0.51479792  0.35588775
   1.00000000  0.49692081  0.47147433
   1.00000000  0.73000122  0.45204376
Direct configuration=    64
   0.00000000  0.00244163 -0.00554798
   0.50000000  0.50306905  0.04194384
   0.00000000  0.00469113  0.09639001
   0.50000000  0.50612159  0.14870979
   0.00000000  0.00812797  0.20169245
   0.50000000  0.51072665  0.25400460
   0.00000000  0.01372610  0.30878958
   0.50000000  0.51476314  0.35586803
   1.00000000  0.49717017  0.47146896
   1.00000000  0.72979708  0.45201036
Direct configuration=    65
   0.00000000  0.00247816 -0.00550662
   0.50000000  0.50310716  0.04199048
   0.00000000  0.00471736  0.09641822
   0.50000000  0.50607775  0.14871939
   0.00000000  0.00811277  0.20168013
   0.50000000  0.51071295  0.25397429
   0.00000000  0.01367710  0.30882337
   0.50000000  0.51469359  0.35582859
   1.00000000  0.49766888  0.47145822
   1.00000000  0.72938880  0.45194357
Direct configuration=    66
   0.00000000  0.00249469 -0.00548793
   0.50000000  0.50312439  0.04201157
   0.00000000  0.00472921  0.09643098
   0.50000000  0.50605792  0.14872373
   0.00000000  0.00810589  0.20167457
   0.50000000  0.51070676  0.25396059
   0.00000000  0.01365494  0.30883865
   0.50000000  0.51466213  0.35581076
   1.00000000  0.49789439  0.47145337
   1.00000000  0.72920418  0.45191336
Direct configuration=    67
   0.00000000  0.00252773 -0.00545053
   0.50000000  0.50315886  0.04205375
   0.00000000  0.00475293  0.09645649
   0.50000000  0.50601826  0.14873242
   0.00000000  0.00809214  0.20166343
   0.50000000  0.51069438  0.25393318
   0.00000000  0.01361063  0.30886921
   0.50000000  0.51459923  0.35577509
   1.00000000  0.49834540  0.47144365
   1.00000000  0.72883495  0.45185295
Direct configuration=    68
   0.00000000  0.00258597 -0.00538221
   0.50000000  0.50321941  0.04211590
   0.00000000  0.00478410  0.09648317
   0.50000000  0.50597929  0.14874109
   0.00000000  0.00806768  0.20167676
   0.50000000  0.51067041  0.25391785
   0.00000000  0.01353669  0.30886022
   0.50000000  0.51448866  0.35572410
   1.00000000  0.49882338  0.47147288
   1.00000000  0.72847890  0.45171988
Direct configuration=    69
   0.00000000  0.00276069 -0.00517726
   0.50000000  0.50340108  0.04230235
   0.00000000  0.00487761  0.09656323
   0.50000000  0.50586238  0.14876711
   0.00000000  0.00799431  0.20171676
   0.50000000  0.51059852  0.25387186
   0.00000000  0.01331489  0.30883324
   0.50000000  0.51415695  0.35557112
   1.00000000  0.50025731  0.47156055
   1.00000000  0.72741078  0.45132069
Direct configuration=    70
   0.00000000  0.00311013 -0.00476735
   0.50000000  0.50376441  0.04267525
   0.00000000  0.00506462  0.09672333
   0.50000000  0.50562856  0.14881915
   0.00000000  0.00784755  0.20179676
   0.50000000  0.51045473  0.25377987
   0.00000000  0.01287129  0.30877928
   0.50000000  0.51349352  0.35526517
   1.00000000  0.50312516  0.47173589
   1.00000000  0.72527452  0.45052229
Direct configuration=    71
   0.00000000  0.00288203 -0.00503492
   0.50000000  0.50352724  0.04243184
   0.00000000  0.00494254  0.09661882
   0.50000000  0.50578119  0.14878518
   0.00000000  0.00794335  0.20174454
   0.50000000  0.51054859  0.25383992
   0.00000000  0.01316086  0.30881450
   0.50000000  0.51392658  0.35546488
   1.00000000  0.50125313  0.47162143
   1.00000000  0.72666899  0.45104345
Direct configuration=    72
   0.00000000  0.00299608 -0.00490114
   0.50000000  0.50364583  0.04255354
   0.00000000  0.00500358  0.09667108
   0.50000000  0.50570488  0.14880217
   0.00000000  0.00789545  0.20177065
   0.50000000  0.51050166  0.25380990
   0.00000000  0.01301607  0.30879689
   0.50000000  0.51371005  0.35536502
   1.00000000  0.50218914  0.47167866
   1.00000000  0.72597176  0.45078287
Direct configuration=    73
   0.00000000  0.00304185 -0.00485207
   0.50000000  0.50368980  0.04259399
   0.00000000  0.00502246  0.09669183
   0.50000000  0.50568361  0.14881109
   0.00000000  0.00787478  0.20178349
   0.50000000  0.51047960  0.25380407
   0.00000000  0.01295811  0.30877887
   0.50000000  0.51362693  0.35533527
   1.00000000  0.50274289  0.47168903
   1.00000000  0.72551448  0.45069408