 vasp.6.3.2 27Jun22 (build Aug 17 2022 15:43:34) complex                        
  
 executed on           tv2STDVTST date 2025.02.03  10:47:12
 running   20 mpi-ranks, with    1 threads/rank
 distrk:  each k-point on   20 cores,    1 groups
 distr:  one band on NCORE=   5 cores,    4 groups


--------------------------------------------------------------------------------------------------------


 -----------------------------------------------------------------------------
|                                                                             |
|           W    W    AA    RRRRR   N    N  II  N    N   GGGG   !!!           |
|           W    W   A  A   R    R  NN   N  II  NN   N  G    G  !!!           |
|           W    W  A    A  R    R  N N  N  II  N N  N  G       !!!           |
|           W WW W  AAAAAA  RRRRR   N  N N  II  N  N N  G  GGG   !            |
|           WW  WW  A    A  R   R   N   NN  II  N   NN  G    G                |
|           W    W  A    A  R    R  N    N  II  N    N   GGGG   !!!           |
|                                                                             |
|     Found issues when parsing the INCAR file                                |
|     In line 64: Tagname --- R W I G S contains invalid characters.          |
|     Please check if the interpretation in the OUTCAR file is correct.       |
|                                                                             |
 -----------------------------------------------------------------------------

 INCAR:
    = \=\=\=\=\=\=\=\=\=\=\=\=\=\=\=\=\=\=\=\=\=\=\=\=\=\=\=\=\=\=\=\=\=\=\=\=\=\=\=\=\=\=\=\=\=\=\=\=\=\=\=\=\=\=\=\=\=\=\=\=\=\=\=\=\=\=\=\=\=\=\=\=
    = \=\=\=\=\=\=\=\=\=\=\=\=\=\=\=\=\=\=\=\=\=\=\=\=\=\=\=\=\=\=\=\=\=\=\=\=\=\=\=\=\=\=\=\=\=\=\=\=\=\=\=\=\=\=\=\=\=\=\=\=\=\=\=\=\=\=\=\=\=\=\=\=
   ISTART = 0
   ICHARG = 2
   IPIPOL = 3
   IVDW = 11
   IDIPOL = 3
   IVDW = 11
    = \=\=\=\=\=\=\=\=\=\=\=\=\=\=\=\=\=\=\=\=\=\=\=\=\=\=\=\=\=\=\=\=\=\=\=\=\=\=\=\=\=\=\=\=\=\=\=\=\=\=\=\=\=\=\=\=\=\=\=\=\=\=\=\=\=\=\=\=\=\=\=\=
    = \=\=\=\=\=\=\=\=\=\=\=\=\=\=\=\=\=\=\=\=\=\=\=\=\=\=\=\=\=\=\=\=\=\=\=\=\=\=\=\=\=\=\=\=\=\=\=\=\=\=\=\=\=\=\=\=\=\=\=\=\=\=\=\=\=\=\=\=\=\=\=\=
   ISPIN = 2
    = \=\=\=\=\=\=\=\=\=\=\=\=\=\=\=\=\=\=\=\=\=\=\=\=\=\=\=\=\=\=\=\=\=\=\=\=\=\=\=\=\=\=\=\=\=\=\=\=\=\=\=\=\=\=\=\=\=\=\=\=\=\=\=\=\=\=\=\=\=\=\=\=
    = \=\=\=\=\=\=\=\=\=\=\=\=\=\=\=\=\=\=\=\=\=\=\=\=\=\=\=\=\=\=\=\=\=\=\=\=\=\=\=\=\=\=\=\=\=\=\=\=\=\=\=\=\=\=\=\=\=\=\=\=\=\=\=\=\=\=\=\=\=\=\=\=
   ENCUT = 400
   PREC = Normal
   EDIFF = 2E-04
   GGA = PE
   ISMEAR = 1
   SIGMA = 0.2
   LREAL = .FALSE.
    = \=\=\=\=\=\=\=\=\=\=\=\=\=\=\=\=\=\=\=\=\=\=\=\=\=\=\=\=\=\=\=\=\=\=\=\=\=\=\=\=\=\=\=\=\=\=\=\=\=\=\=\=\=\=\=\=\=\=\=\=\=\=\=\=\=\=\=\=\=\=\=\=
    = \=\=\=\=\=\=\=\=\=\=\=\=\=\=\=\=\=\=\=\=\=\=\=\=\=\=\=\=\=\=\=\=\=\=\=\=\=\=\=\=\=\=\=\=\=\=\=\=\=\=\=\=\=\=\=\=\=\=\=\=\=\=\=\=\=\=\=\=\=\=\=\=
   ISYM = 1
   NSW = 800
   IBRION = 2
   POTIM = 0.5
   ISIF = 2
   EDIFFG = -.03
    = \=\=\=\=\=\=\=\=\=\=\=\=\=\=\=\=\=\=\=\=\=\=\=\=\=\=\=\=\=\=\=\=\=\=\=\=\=\=\=\=\=\=\=\=\=\=\=\=\=\=\=\=\=\=\=\=\=\=\=\=\=\=\=\=\=\=\=\=\=\=\=\=
    = \=\=\=\=\=\=\=\=\=\=\=\=\=\=\=\=\=\=\=\=\=\=\=\=\=\=\=\=\=\=\=\=\=\=\=\=\=\=\=\=\=\=\=\=\=\=\=\=\=\=\=\=\=\=\=\=\=\=\=\=\=\=\=\=\=\=\=\=\=\=\=\=
   NPAR = 4
   LWAVE = .FALSE.
   LCHARG = .FALSE.

 POTCAR:    PAW_PBE Cu 22Jun2005                  
 -----------------------------------------------------------------------------
|                                                                             |
|           W    W    AA    RRRRR   N    N  II  N    N   GGGG   !!!           |
|           W    W   A  A   R    R  NN   N  II  NN   N  G    G  !!!           |
|           W    W  A    A  R    R  N N  N  II  N N  N  G       !!!           |
|           W WW W  AAAAAA  RRRRR   N  N N  II  N  N N  G  GGG   !            |
|           WW  WW  A    A  R   R   N   NN  II  N   NN  G    G                |
|           W    W  A    A  R    R  N    N  II  N    N   GGGG   !!!           |
|                                                                             |
|     You use a magnetic or noncollinear calculation, but did not specify     |
|     the initial magnetic moment with the MAGMOM tag. Note that a            |
|     default of 1 will be used for all atoms. This ferromagnetic setup       |
|     may break the symmetry of the crystal, in particular it may rule        |
|     out finding an antiferromagnetic solution. Thence, we recommend         |
|     setting the initial magnetic moment manually or verifying carefully     |
|     that this magnetic setup is desired.                                    |
|                                                                             |
 -----------------------------------------------------------------------------

 POTCAR:    PAW_PBE Cu 22Jun2005                  
   SHA256 =  0e71e558f37a4e8407882b4609ceaae59938afaad9ced71dfe8490308a0ab630 Cu/POTCAR             
   COPYR  = (c) Copyright 22Jun2005 Georg Kresse                                                    
   COPYR  = This file is part of the software VASP. Any use, copying, and all other rights are regul
   COPYR  = If you do not have a valid VASP license, you may not use, copy or distribute this file. 
   VRHFIN =Cu: d10 p1                                                                               
   LEXCH  = PE                                                                                      
   EATOM  =  1390.9808 eV,  102.2342 Ry                                                             
                                                                                                    
   TITEL  = PAW_PBE Cu 22Jun2005                                                                    
   LULTRA =        F    use ultrasoft PP ?                                                          
   IUNSCR =        1    unscreen: 0-lin 1-nonlin 2-no                                               
   RPACOR =    2.000    partial core radius                                                         
   POMASS =   63.546; ZVAL   =   11.000    mass and valenz                                          
   RCORE  =    2.300    outmost cutoff radius                                                       
   RWIGS  =    2.200; RWIGS  =    1.164    wigner-seitz radius (au A)                               
   ENMAX  =  295.446; ENMIN  =  221.585 eV                                                          
   ICORE  =        3    local potential                                                             
   LCOR   =        T    correct aug charges                                                         
   LPAW   =        T    paw PP                                                                      
   EAUG   =  586.980                                                                                
   DEXC   =    0.000                                                                                
   RMAX   =    2.344    core radius for proj-oper                                                   
   RAUG   =    1.300    factor for augmentation sphere                                              
   RDEP   =    2.302    radius for radial grids                                                     
   RDEPT  =    1.771    core radius for aug-charge                                                  
                                                                                                    
   Atomic configuration                                                                             
    9 entries                                                                                       
     n  l   j            E        occ.                                                              
     1  0  0.50     -8850.2468   2.0000                                                             
     2  0  0.50     -1062.3498   2.0000                                                             
     2  1  1.50      -916.8226   6.0000                                                             
     3  0  0.50      -114.6929   2.0000                                                             
     3  1  1.50       -72.1325   6.0000                                                             
     3  2  2.50        -5.0394  10.0000                                                             
     4  0  0.50        -4.6097   1.0000                                                             
     4  1  0.50        -4.0817   0.0000                                                             
     4  3  2.50        -1.3606   0.0000                                                             
   Description                                                                                      
     l       E           TYP  RCUT    TYP  RCUT                                                     
     2     -5.0393973     23  2.200                                                                 
     2     10.8846608     23  2.200                                                                 
     0     -4.6097109     23  2.200                                                                 
     0      8.2520465     23  2.200                                                                 
     1     -2.7211652     23  2.200                                                                 
     1     21.7055443     23  2.200                                                                 
     3      2.7211652     23  2.300                                                                 
  local pseudopotential read in
  partial core-charges read in
  partial kinetic energy density read in
  atomic valenz-charges read in
  non local Contribution for L=           2  read in
    real space projection operators read in
  non local Contribution for L=           2  read in
    real space projection operators read in
  non local Contribution for L=           0  read in
    real space projection operators read in
  non local Contribution for L=           0  read in
    real space projection operators read in
  non local Contribution for L=           1  read in
    real space projection operators read in
  non local Contribution for L=           1  read in
    real space projection operators read in
    PAW grid and wavefunctions read in
 
   number of l-projection  operators is LMAX  =           6
   number of lm-projection operators is LMMAX =          18
 
 -----------------------------------------------------------------------------
|                                                                             |
|               ----> ADVICE to this user running VASP <----                  |
|                                                                             |
|     You have a (more or less) 'large supercell' and for larger cells it     |
|     might be more efficient to use real-space projection operators.         |
|     Therefore, try LREAL= Auto in the INCAR file.                           |
|     Mind: For very accurate calculation, you might also keep the            |
|     reciprocal projection scheme (i.e. LREAL=.FALSE.).                      |
|                                                                             |
 -----------------------------------------------------------------------------

  PAW_PBE Cu 22Jun2005                  :
 energy of atom  1       EATOM=-1390.9808
 kinetic energy error for atom=    0.0232 (will be added to EATOM!!)
 
 
 POSCAR: FCC Cu
  positions in cartesian coordinates
  velocities in cartesian coordinates
  No initial velocities read in
 exchange correlation table for  LEXCH =        8
   RHO(1)=    0.500       N(1)  =     2000
   RHO(2)=  100.500       N(2)  =     4000

 VTST: version 4.2, (08/11/21)

 CHAIN: initializing optimizer
 
 OPT: Using VASP Conjugate-Gradient optimizer
 CHAIN: Read ICHAIN            0
 
 POSCAR: FCC Cu
  positions in cartesian coordinates
  velocities in cartesian coordinates
  No initial velocities read in
 


--------------------------------------------------------------------------------------------------------


 ion  position               nearest neighbor table
   1  0.000  0.000  0.000-  19 2.57  12 2.57  18 2.57  10 2.57  16 2.57   3 2.57   2 2.57
   2  0.000  0.333  0.000-  20 2.57  10 2.57  16 2.57  11 2.57  17 2.57   1 2.57   3 2.57
   3  0.000  0.667  0.000-  21 2.57  12 2.57  11 2.57  18 2.57  17 2.57   1 2.57   2 2.57
   4  0.333  0.000  0.000-  22 2.57  12 2.57  15 2.57  10 2.57  13 2.57   6 2.57   5 2.57
   5  0.333  0.333  0.000-  23 2.57  10 2.57  13 2.57  11 2.57  14 2.57   4 2.57   6 2.57
   6  0.333  0.667  0.000-  24 2.57  12 2.57  11 2.57  15 2.57  14 2.57   4 2.57   5 2.57
   7  0.667  0.000  0.000-  25 2.57  18 2.57  16 2.57  15 2.57  13 2.57   9 2.57   8 2.57
   8  0.667  0.333  0.000-  26 2.57  16 2.57  17 2.57  13 2.57  14 2.57   7 2.57   9 2.57
   9  0.667  0.667  0.000-  27 2.57  18 2.57  17 2.57  15 2.57  14 2.57   7 2.57   8 2.57
  10  0.167  0.167  0.057-  28 2.57  23 2.57  20 2.57  19 2.57  22 2.57   5 2.57   2 2.57   1 2.57
                             4 2.57  12 2.57  11 2.57
  11  0.167  0.500  0.057-  29 2.57  21 2.57  23 2.57  24 2.57  20 2.57   3 2.57   5 2.57   6 2.57
                             2 2.57  10 2.57  12 2.57
  12  0.167  0.833  0.057-  30 2.57  22 2.57  19 2.57  24 2.57  21 2.57   4 2.57   1 2.57   6 2.57
                             3 2.57  10 2.57  11 2.57
  13  0.500  0.167  0.057-  31 2.57  23 2.57  22 2.57  26 2.57   5 2.57  25 2.57   4 2.57   8 2.57
                             7 2.57  15 2.57  14 2.57
  14  0.500  0.500  0.057-  32 2.57  24 2.57  23 2.57  27 2.57  26 2.57   6 2.57   5 2.57   9 2.57
                             8 2.57  13 2.57  15 2.57
  15  0.500  0.833  0.057-  33 2.57  22 2.57  24 2.57  25 2.57   4 2.57  27 2.57   6 2.57   7 2.57
                             9 2.57  13 2.57  14 2.57
  16  0.833  0.167  0.057-  34 2.57  26 2.57  20 2.57  25 2.57  19 2.57   8 2.57   2 2.57   7 2.57
                             1 2.57  18 2.57  17 2.57
  17  0.833  0.500  0.057-  35 2.57  27 2.57  26 2.57  21 2.57  20 2.57   9 2.57   8 2.57   3 2.57
                             2 2.57  16 2.57  18 2.57
  18  0.833  0.833  0.057-  36 2.57  25 2.57  19 2.57  27 2.57  21 2.57   7 2.57   1 2.57   9 2.57
                             3 2.57  16 2.57  17 2.57
  19  0.000  0.000  0.113-   1 2.57  37 2.57  12 2.57  18 2.57  10 2.57  16 2.57  30 2.57  36 2.57
                            28 2.57  34 2.57  21 2.57  20 2.57
  20  0.000  0.333  0.113-   2 2.57  38 2.57  10 2.57  16 2.57  11 2.57  17 2.57  28 2.57  34 2.57
                            29 2.57  35 2.57  19 2.57  21 2.57
  21  0.000  0.667  0.113-   3 2.57  39 2.57  12 2.57  11 2.57  18 2.57  17 2.57  30 2.57  29 2.57
                            36 2.57  35 2.57  19 2.57  20 2.57
  22  0.333  0.000  0.113-   4 2.57  40 2.57  12 2.57  15 2.57  10 2.57  13 2.57  30 2.57  33 2.57
                            28 2.57  31 2.57  24 2.57  23 2.57
  23  0.333  0.333  0.113-   5 2.57  41 2.57  10 2.57  13 2.57  11 2.57  14 2.57  28 2.57  31 2.57
                            29 2.57  32 2.57  22 2.57  24 2.57
  24  0.333  0.667  0.113-   6 2.57  42 2.57  12 2.57  11 2.57  15 2.57  14 2.57  30 2.57  29 2.57
                            33 2.57  32 2.57  22 2.57  23 2.57
  25  0.667  0.000  0.113-   7 2.57  43 2.57  18 2.57  16 2.57  15 2.57  36 2.57  13 2.57  34 2.57
                            33 2.57  31 2.57  27 2.57  26 2.57
  26  0.667  0.333  0.113-   8 2.57  44 2.57  16 2.57  17 2.57  13 2.57  34 2.57  14 2.57  35 2.57
                            31 2.57  32 2.57  25 2.57  27 2.57
  27  0.667  0.667  0.113-   9 2.57  45 2.57  18 2.57  17 2.57  15 2.57  14 2.57  36 2.57  35 2.57
                            33 2.57  32 2.57  25 2.57  26 2.57
  28  0.167  0.167  0.170-  10 2.57  46 2.57  41 2.57  38 2.57  37 2.57  40 2.57  23 2.57  20 2.57
                            19 2.57  22 2.57  30 2.57  29 2.57
  29  0.167  0.500  0.170-  11 2.57  47 2.57  39 2.57  41 2.57  42 2.57  38 2.57  21 2.57  23 2.57
                            24 2.57  20 2.57  28 2.57  30 2.57
  30  0.167  0.833  0.170-  12 2.57  48 2.57  40 2.57  37 2.57  22 2.57  19 2.57  42 2.57  39 2.57
                            24 2.57  21 2.57  28 2.57  29 2.57
  31  0.500  0.167  0.170-  13 2.57  49 2.57  41 2.57  40 2.57  23 2.57  44 2.57  22 2.57  43 2.57
                            26 2.57  25 2.57  33 2.57  32 2.57
  32  0.500  0.500  0.170-  14 2.57  50 2.57  42 2.57  41 2.57  24 2.57  23 2.57  45 2.57  44 2.57
                            27 2.57  26 2.57  31 2.57  33 2.57
  33  0.500  0.833  0.170-  15 2.57  51 2.57  40 2.57  22 2.57  42 2.57  43 2.57  24 2.57  25 2.57
                            45 2.57  27 2.57  31 2.57  32 2.57
  34  0.833  0.167  0.170-  16 2.57  52 2.57  44 2.57  38 2.57  43 2.57  26 2.57  37 2.57  20 2.57
                            25 2.57  19 2.57  36 2.57  35 2.57
  35  0.833  0.500  0.170-  17 2.57  53 2.57  45 2.57  44 2.57  39 2.57  38 2.57  27 2.57  26 2.57
                            21 2.57  20 2.57  34 2.57  36 2.57
  36  0.833  0.833  0.170-  18 2.57  54 2.57  43 2.57  37 2.57  25 2.57  45 2.57  19 2.57  39 2.57
                            27 2.57  21 2.57  34 2.57  35 2.57
  37  0.000  0.000  0.226-  55 2.57  19 2.57  30 2.57  48 2.57  36 2.57  54 2.57  28 2.57  46 2.57
                            34 2.57  52 2.57  39 2.57  38 2.57
  38  0.000  0.333  0.226-  56 2.57  20 2.57  28 2.57  46 2.57  34 2.57  52 2.57  29 2.57  47 2.57
                            35 2.57  53 2.57  37 2.57  39 2.57
  39  0.000  0.667  0.226-  57 2.57  21 2.57  30 2.57  29 2.57  48 2.57  47 2.57  36 2.57  35 2.57
                            54 2.57  53 2.57  37 2.57  38 2.57
  40  0.333  0.000  0.226-  58 2.57  22 2.57  30 2.57  33 2.57  48 2.57  51 2.57  28 2.57  31 2.57
                            46 2.57  49 2.57  42 2.57  41 2.57
  41  0.333  0.333  0.226-  59 2.57  23 2.57  28 2.57  31 2.57  46 2.57  49 2.57  29 2.57  32 2.57
                            47 2.57  50 2.57  40 2.57  42 2.57
  42  0.333  0.667  0.226-  60 2.57  24 2.57  30 2.57  29 2.57  33 2.57  32 2.57  48 2.57  47 2.57
                            51 2.57  50 2.57  40 2.57  41 2.57
  43  0.667  0.000  0.226-  61 2.57  25 2.57  36 2.57  54 2.57  34 2.57  52 2.57  33 2.57  51 2.57
                            31 2.57  49 2.57  45 2.57  44 2.57
  44  0.667  0.333  0.226-  62 2.57  26 2.57  34 2.57  52 2.57  35 2.57  53 2.57  31 2.57  49 2.57
                            32 2.57  50 2.57  43 2.57  45 2.57
  45  0.667  0.667  0.226-  63 2.57  27 2.57  36 2.57  35 2.57  54 2.57  53 2.57  33 2.57  32 2.57
                            51 2.57  50 2.57  43 2.57  44 2.57
  46  0.167  0.167  0.283-  28 2.57  56 2.57  59 2.57  38 2.57  41 2.57  58 2.57  55 2.57  40 2.57
                            37 2.57  48 2.57  47 2.57
  47  0.167  0.500  0.283-  29 2.57  56 2.57  57 2.57  59 2.57  60 2.57  38 2.57  39 2.57  41 2.57
                            42 2.57  46 2.57  48 2.57
  48  0.167  0.833  0.283-  30 2.57  55 2.57  58 2.57  37 2.57  40 2.57  57 2.57  60 2.57  39 2.57
                            42 2.57  46 2.57  47 2.57
  49  0.500  0.167  0.283-  31 2.57  59 2.57  41 2.57  58 2.57  40 2.57  62 2.57  44 2.57  61 2.57
                            43 2.57  51 2.57  50 2.57
  50  0.500  0.500  0.283-  32 2.57  59 2.57  60 2.57  41 2.57  42 2.57  62 2.57  63 2.57  44 2.57
                            45 2.57  49 2.57  51 2.57
  51  0.500  0.833  0.283-  33 2.57  58 2.57  40 2.57  60 2.57  42 2.57  61 2.57  43 2.57  63 2.57
                            45 2.57  49 2.57  50 2.57
  52  0.833  0.167  0.283-  34 2.57  62 2.57  44 2.57  56 2.57  38 2.57  61 2.57  43 2.57  55 2.57
                            37 2.57  54 2.57  53 2.57
  53  0.833  0.500  0.283-  35 2.57  62 2.57  63 2.57  44 2.57  45 2.57  56 2.57  57 2.57  38 2.57
                            39 2.57  52 2.57  54 2.57
  54  0.833  0.833  0.283-  36 2.57  61 2.57  43 2.57  55 2.57  37 2.57  63 2.57  45 2.57  57 2.57
                            39 2.57  52 2.57  53 2.57
  55  0.000  0.000  0.339-  37 2.57  48 2.57  54 2.57  46 2.57  52 2.57  57 2.57  56 2.57
  56  0.000  0.333  0.339-  38 2.57  46 2.57  52 2.57  47 2.57  53 2.57  55 2.57  57 2.57
  57  0.000  0.667  0.339-  39 2.57  47 2.57  48 2.57  53 2.57  54 2.57  55 2.57  56 2.57
  58  0.333  0.000  0.339-  40 2.57  48 2.57  51 2.57  46 2.57  49 2.57  60 2.57  59 2.57
  59  0.333  0.333  0.339-  41 2.57  46 2.57  49 2.57  47 2.57  50 2.57  58 2.57  60 2.57
  60  0.333  0.667  0.339-  42 2.57  47 2.57  48 2.57  50 2.57  51 2.57  58 2.57  59 2.57
  61  0.667  0.000  0.339-  43 2.57  54 2.57  52 2.57  51 2.57  49 2.57  63 2.57  62 2.57
  62  0.667  0.333  0.339-  44 2.57  52 2.57  53 2.57  49 2.57  50 2.57  61 2.57  63 2.57
  63  0.667  0.667  0.339-  45 2.57  53 2.57  54 2.57  50 2.57  51 2.57  61 2.57  62 2.57
 
  LATTYP: Found a simple orthorhombic cell.
 ALAT       =     7.7003931999
 B/A-ratio  =     1.4142135422
 C/A-ratio  =     2.9479524501
  
  Lattice vectors:
  
 A1 = (   0.0000000000,  -7.7003931999,   0.0000000000)
 A2 = (  10.8900003433,   0.0000000000,   0.0000000000)
 A3 = (   0.0000000000,   0.0000000000,  22.7003930000)


Analysis of symmetry for initial positions (statically):
=====================================================================
 Subroutine PRICEL returns following result:
 
  LATTYP: Found a simple orthorhombic cell.
 ALAT       =     2.5667977330
 B/A-ratio  =     1.4142135422
 C/A-ratio  =     8.8438573512
  
  Lattice vectors:
  
 A1 = (   0.0000000000,  -2.5667977330,   0.0000000000)
 A2 = (   3.6300001140,   0.0000000000,   0.0000000000)
 A3 = (   0.0000000000,   0.0000000000,  22.7003930000)
 
   9 primitive cells build up your supercell.
 

 Routine SETGRP: Setting up the symmetry group for a 
 simple orthorhombic supercell.


 Subroutine GETGRP returns: Found  8 space group operations
 (whereof  4 operations were pure point group operations)
 out of a pool of  8 trial point group operations.


The static configuration has the point symmetry C_2v.
 The point group associated with its full space group is D_2h.


Analysis of symmetry for dynamics (positions and initial velocities):
=====================================================================
 Subroutine PRICEL returns following result:
 
  LATTYP: Found a simple orthorhombic cell.
 ALAT       =     2.5667977330
 B/A-ratio  =     1.4142135422
 C/A-ratio  =     8.8438573512
  
  Lattice vectors:
  
 A1 = (   0.0000000000,  -2.5667977330,   0.0000000000)
 A2 = (   3.6300001140,   0.0000000000,   0.0000000000)
 A3 = (   0.0000000000,   0.0000000000,  22.7003930000)
 
   9 primitive cells build up your supercell.
 

 Routine SETGRP: Setting up the symmetry group for a 
 simple orthorhombic supercell.


 Subroutine GETGRP returns: Found  8 space group operations
 (whereof  4 operations were pure point group operations)
 out of a pool of  8 trial point group operations.


The dynamic configuration has the point symmetry C_2v.
 The point group associated with its full space group is D_2h.


Analysis of constrained symmetry for selective dynamics:
=====================================================================
 Subroutine PRICEL returns following result:
 
  LATTYP: Found a simple orthorhombic cell.
 ALAT       =     2.5667977330
 B/A-ratio  =     1.4142135422
 C/A-ratio  =     8.8438573512
  
  Lattice vectors:
  
 A1 = (   0.0000000000,  -2.5667977330,   0.0000000000)
 A2 = (   3.6300001140,   0.0000000000,   0.0000000000)
 A3 = (   0.0000000000,   0.0000000000,  22.7003930000)
 
   9 primitive cells build up your supercell.
 

 Routine SETGRP: Setting up the symmetry group for a 
 simple orthorhombic supercell.


 Subroutine GETGRP returns: Found  4 space group operations
 (whereof  4 operations were pure point group operations)
 out of a pool of  8 trial point group operations.


The constrained configuration has the point symmetry C_2v.


Analysis of structural, dynamic, and magnetic symmetry:
=====================================================================
 Subroutine PRICEL returns following result:
 
  LATTYP: Found a simple orthorhombic cell.
 ALAT       =     2.5667977330
 B/A-ratio  =     1.4142135422
 C/A-ratio  =     8.8438573512
  
  Lattice vectors:
  
 A1 = (   0.0000000000,  -2.5667977330,   0.0000000000)
 A2 = (   3.6300001140,   0.0000000000,   0.0000000000)
 A3 = (   0.0000000000,   0.0000000000,  22.7003930000)
 
   9 primitive cells build up your supercell.
 

 Routine SETGRP: Setting up the symmetry group for a 
 simple orthorhombic supercell.


 Subroutine GETGRP returns: Found  4 space group operations
 (whereof  4 operations were pure point group operations)
 out of a pool of  8 trial point group operations.


The overall configuration has the point symmetry C_2v.


 Subroutine INISYM returns: Found  4 space group operations
 (whereof  4 operations are pure point group operations),
 and found     9 'primitive' translations


----------------------------------------------------------------------------------------

                                     Primitive cell                                     

  volume of cell :     211.5104

  direct lattice vectors                    reciprocal lattice vectors
     0.000000000 -2.566797733  0.000000000     0.000000000 -0.389590495  0.000000000
     3.630000114  0.000000000  0.000000000     0.275482085  0.000000000  0.000000000
     0.000000000  0.000000000 22.700393000     0.000000000  0.000000000  0.044052101

  length of vectors
     2.566797733  3.630000114 22.700393000     0.389590495  0.275482085  0.044052101

  position of ions in fractional coordinates (direct lattice)
     0.000000000  0.000000000  0.000000000
     0.499999999  0.500000000  0.056536415
     0.000000000  0.000000000  0.113072829
     0.499999999  0.500000000  0.169609244
     0.000000000  0.000000000  0.226145658
     0.499999999  0.500000000  0.282682073
     0.000000000  0.000000000  0.339218487

  ion indices of the primitive-cell ions
   primitive index   ion index
                 1           1
                 2          12
                 3          19
                 4          30
                 5          37
                 6          48
                 7          55

----------------------------------------------------------------------------------------

 
 
 KPOINTS: Auto-mesh                               

Automatic generation of k-mesh.
 Grid dimensions read from file:
 generate k-points for:    3    3    1

 Generating k-lattice:

  Cartesian coordinates                     Fractional coordinates (reciprocal lattice)
     0.030609121  0.000000000  0.000000000     0.333333333  0.000000000  0.000000000
     0.000000000  0.043287833  0.000000000     0.000000000  0.333333333  0.000000000
     0.000000000  0.000000000  0.044052101     0.000000000  0.000000000  1.000000000

  Length of vectors
     0.030609121  0.043287833  0.044052101

  Shift w.r.t. Gamma in fractional coordinates (k-lattice)
     0.000000000  0.000000000  0.000000000

 
 Subroutine IBZKPT returns following result:
 ===========================================
 
 Found      4 irreducible k-points:
 
 Following reciprocal coordinates:
            Coordinates               Weight
  0.000000  0.000000  0.000000      1.000000
  0.333333  0.000000  0.000000      2.000000
  0.000000  0.333333  0.000000      2.000000
  0.333333  0.333333  0.000000      4.000000
 
 Following cartesian coordinates:
            Coordinates               Weight
  0.000000  0.000000  0.000000      1.000000
  0.030609  0.000000  0.000000      2.000000
  0.000000  0.043288  0.000000      2.000000
  0.030609  0.043288  0.000000      4.000000
 


--------------------------------------------------------------------------------------------------------




 Dimension of arrays:
   k-points           NKPTS =      4   k-points in BZ     NKDIM =      4   number of bands    NBANDS=    448
   number of dos      NEDOS =    301   number of ions     NIONS =     63
   non local maximal  LDIM  =      6   non local SUM 2l+1 LMDIM =     18
   total plane-waves  NPLWV = 241920
   max r-space proj   IRMAX =      1   max aug-charges    IRDMAX=   3880
   dimension x,y,z NGX =    54 NGY =   40 NGZ =  112
   dimension x,y,z NGXF=   108 NGYF=   80 NGZF=  224
   support grid    NGXF=   108 NGYF=   80 NGZF=  224
   ions per type =              63
   NGX,Y,Z   is equivalent  to a cutoff of   8.24,  8.64,  8.20 a.u.
   NGXF,Y,Z  is equivalent  to a cutoff of  16.49, 17.27, 16.40 a.u.

 SYSTEM =  unknown system                          
 POSCAR =  FCC Cu                                  

 Startparameter for this run:
   NWRITE =      2    write-flag & timer
   PREC   = normal    normal or accurate (medium, high low for compatibility)
   ISTART =      0    job   : 0-new  1-cont  2-samecut
   ICHARG =      2    charge: 1-file 2-atom 10-const
   ISPIN  =      2    spin polarized calculation?
   LNONCOLLINEAR =      F non collinear calculations
   LSORBIT =      F    spin-orbit coupling
   INIWAV =      1    electr: 0-lowe 1-rand  2-diag
   LASPH  =      F    aspherical Exc in radial PAW
 Electronic Relaxation 1
   ENCUT  =  400.0 eV  29.40 Ry    5.42 a.u.  17.76 12.56 37.02*2*pi/ulx,y,z
   ENINI  =  400.0     initial cutoff
   ENAUG  =  587.0 eV  augmentation charge cutoff
   NELM   =     60;   NELMIN=  2; NELMDL= -5     # of ELM steps 
   EDIFF  = 0.2E-03   stopping-criterion for ELM
   LREAL  =      F    real-space projection
   NLSPLINE    = F    spline interpolate recip. space projectors
   LCOMPAT=      F    compatible to vasp.4.4
   GGA_COMPAT  = T    GGA compatible to vasp.4.4-vasp.4.6
   LMAXPAW     = -100 max onsite density
   LMAXMIX     =    2 max onsite mixed and CHGCAR
   VOSKOWN=      0    Vosko Wilk Nusair interpolation
   ROPT   =    0.00000
 Ionic relaxation
   EDIFFG = -.3E-01   stopping-criterion for IOM
   NSW    =    800    number of steps for IOM
   NBLOCK =      1;   KBLOCK =    800    inner block; outer block 
   IBRION =      2    ionic relax: 0-MD 1-quasi-New 2-CG
   NFREE  =      1    steps in history (QN), initial steepest desc. (CG)
   ISIF   =      2    stress and relaxation
   IWAVPR =     11    prediction:  0-non 1-charg 2-wave 3-comb
   ISYM   =      1    0-nonsym 1-usesym 2-fastsym
   LCORR  =      T    Harris-Foulkes like correction to forces

   POTIM  = 0.5000    time-step for ionic-motion
   TEIN   =    0.0    initial temperature
   TEBEG  =    0.0;   TEEND  =   0.0 temperature during run
   SMASS  =  -3.00    Nose mass-parameter (am)
   estimated Nose-frequenzy (Omega)   =  0.10E-29 period in steps = 0.13E+47 mass=  -0.271E-26a.u.
   SCALEE = 1.0000    scale energy and forces
   NPACO  =    256;   APACO  = 10.0  distance and # of slots for P.C.
   PSTRESS=    0.0 pullay stress

  Mass of Ions in am
   POMASS =  63.55
  Ionic Valenz
   ZVAL   =  11.00
  Atomic Wigner-Seitz radii
   RWIGS  =  -1.00
  virtual crystal weights 
   VCA    =   1.00
   NELECT =     693.0000    total number of electrons
   NUPDOWN=      -1.0000    fix difference up-down

 DOS related values:
   EMIN   =  10.00;   EMAX   =-10.00  energy-range for DOS
   EFERMI =   0.00
   ISMEAR =     1;   SIGMA  =   0.20  broadening in eV -4-tet -1-fermi 0-gaus

 Electronic relaxation 2 (details)
   IALGO  =     38    algorithm
   LDIAG  =      T    sub-space diagonalisation (order eigenvalues)
   LSUBROT=      F    optimize rotation matrix (better conditioning)
   TURBO    =      0    0=normal 1=particle mesh
   IRESTART =      0    0=no restart 2=restart with 2 vectors
   NREBOOT  =      0    no. of reboots
   NMIN     =      0    reboot dimension
   EREF     =   0.00    reference energy to select bands
   IMIX   =      4    mixing-type and parameters
     AMIX     =   0.40;   BMIX     =  1.00
     AMIX_MAG =   1.60;   BMIX_MAG =  1.00
     AMIN     =   0.10
     WC   =   100.;   INIMIX=   1;  MIXPRE=   1;  MAXMIX= -45

 Intra band minimization:
   WEIMIN = 0.0010     energy-eigenvalue tresh-hold
   EBREAK =  0.11E-06  absolut break condition
   DEPER  =   0.30     relativ break condition  

   TIME   =   0.40     timestep for ELM

  volume/ion in A,a.u.               =      30.22       203.91
  Fermi-wavevector in a.u.,A,eV,Ry     =   1.168946  2.208988 18.591479  1.366435
  Thomas-Fermi vector in A             =   2.305426
 
 Write flags
   LWAVE        =      F    write WAVECAR
   LDOWNSAMPLE  =      F    k-point downsampling of WAVECAR
   LCHARG       =      F    write CHGCAR
   LVTOT        =      F    write LOCPOT, total local potential
   LVHAR        =      F    write LOCPOT, Hartree potential only
   LELF         =      F    write electronic localiz. function (ELF)
   LORBIT       =      0    0 simple, 1 ext, 2 COOP (PROOUT), +10 PAW based schemes


 Dipole corrections
   LMONO  =      F    monopole corrections only (constant potential shift)
   LDIPOL =      F    correct potential (dipole corrections)
   IDIPOL =      3    1-x, 2-y, 3-z, 4-all directions 
   EPSILON=  1.0000000 bulk dielectric constant

 Exchange correlation treatment:
   GGA     =    PE    GGA type
   LEXCH   =     8    internal setting for exchange type
   LIBXC   =     F    Libxc                    
   VOSKOWN =     0    Vosko Wilk Nusair interpolation
   LHFCALC =     F    Hartree Fock is set to
   LHFONE  =     F    Hartree Fock one center treatment
   AEXX    =    0.0000 exact exchange contribution

 Linear response parameters
   LEPSILON=     F    determine dielectric tensor
   LRPA    =     F    only Hartree local field effects (RPA)
   LNABLA  =     F    use nabla operator in PAW spheres
   LVEL    =     F    velocity operator in full k-point grid
   CSHIFT  =0.1000    complex shift for real part using Kramers Kronig
   OMEGAMAX=  -1.0    maximum frequency
   DEG_THRESHOLD= 0.2000000E-02 threshold for treating states as degnerate
   RTIME   =   -0.100 relaxation time in fs
  (WPLASMAI=    0.000 imaginary part of plasma frequency in eV, 0.658/RTIME)
   DFIELD  = 0.0000000 0.0000000 0.0000000 field for delta impulse in time
 
  Optional k-point grid parameters
   LKPOINTS_OPT  =     F    use optional k-point grid
   KPOINTS_OPT_MODE=     1    mode for optional k-point grid
 
 Orbital magnetization related:
   ORBITALMAG=     F  switch on orbital magnetization
   LCHIMAG   =     F  perturbation theory with respect to B field
   DQ        =  0.001000  dq finite difference perturbation B field
   LLRAUG    =     F  two centre corrections for induced B field



--------------------------------------------------------------------------------------------------------


 conjugate gradient relaxation of ions
   using selective dynamics as specified on POSCAR
   WARNING: If single coordinates had been selected the selection of coordinates
            is made according to the corresponding   d i r e c t   coordinates!
            Don't support selection of single cartesian coordinates -- sorry ...
  !
 charge density and potential will be updated during run
 spin polarized calculation
 Variant of blocked Davidson
 Davidson routine will perform the subspace rotation
 perform sub-space diagonalisation
    after iterative eigenvector-optimisation
 modified Broyden-mixing scheme, WC =      100.0
 initial mixing is a Kerker type mixing with AMIX =  0.4000 and BMIX =      1.0000
 Hartree-type preconditioning will be used
 using additional bands          101
 reciprocal scheme for non local part
 use partial core corrections
 calculate Harris-corrections to forces 
   (improved forces if not selfconsistent)
 use gradient corrections 
 use of overlap-Matrix (Vanderbilt PP)
 Methfessel and Paxton  Order N= 1 SIGMA  =   0.20


--------------------------------------------------------------------------------------------------------


  energy-cutoff  :      400.00
  volume of cell :     1903.59
      direct lattice vectors                 reciprocal lattice vectors
    10.890000343  0.000000000  0.000000000     0.091827362  0.000000000  0.000000000
     0.000000000  7.700393200  0.000000000     0.000000000  0.129863498  0.000000000
     0.000000000  0.000000000 22.700393000     0.000000000  0.000000000  0.044052101

  length of vectors
    10.890000343  7.700393200 22.700393000     0.091827362  0.129863498  0.044052101


 
 k-points in units of 2pi/SCALE and weight: Auto-mesh                               
   0.00000000  0.00000000  0.00000000       0.111
   0.03060912  0.00000000  0.00000000       0.222
   0.00000000  0.04328783  0.00000000       0.222
   0.03060912  0.04328783  0.00000000       0.444
 
 k-points in reciprocal lattice and weights: Auto-mesh                               
   0.00000000  0.00000000  0.00000000       0.111
   0.33333333  0.00000000  0.00000000       0.222
   0.00000000  0.33333333  0.00000000       0.222
   0.33333333  0.33333333  0.00000000       0.444
 
 position of ions in fractional coordinates (direct lattice) 
   0.00000000  0.00000000  0.00000000
   0.00000000  0.33333333  0.00000000
   0.00000000  0.66666667  0.00000000
   0.33333333  0.00000000  0.00000000
   0.33333333  0.33333333  0.00000000
   0.33333333  0.66666667  0.00000000
   0.66666667  0.00000000  0.00000000
   0.66666667  0.33333333  0.00000000
   0.66666667  0.66666667  0.00000000
   0.16666667  0.16666667  0.05653641
   0.16666667  0.50000000  0.05653641
   0.16666667  0.83333333  0.05653641
   0.50000000  0.16666667  0.05653641
   0.50000000  0.50000000  0.05653641
   0.50000000  0.83333333  0.05653641
   0.83333333  0.16666667  0.05653641
   0.83333333  0.50000000  0.05653641
   0.83333333  0.83333333  0.05653641
   0.00000000  0.00000000  0.11307283
   0.00000000  0.33333333  0.11307283
   0.00000000  0.66666667  0.11307283
   0.33333333  0.00000000  0.11307283
   0.33333333  0.33333333  0.11307283
   0.33333333  0.66666667  0.11307283
   0.66666667  0.00000000  0.11307283
   0.66666667  0.33333333  0.11307283
   0.66666667  0.66666667  0.11307283
   0.16666667  0.16666667  0.16960924
   0.16666667  0.50000000  0.16960924
   0.16666667  0.83333333  0.16960924
   0.50000000  0.16666667  0.16960924
   0.50000000  0.50000000  0.16960924
   0.50000000  0.83333333  0.16960924
   0.83333333  0.16666667  0.16960924
   0.83333333  0.50000000  0.16960924
   0.83333333  0.83333333  0.16960924
   0.00000000  0.00000000  0.22614566
   0.00000000  0.33333333  0.22614566
   0.00000000  0.66666667  0.22614566
   0.33333333  0.00000000  0.22614566
   0.33333333  0.33333333  0.22614566
   0.33333333  0.66666667  0.22614566
   0.66666667  0.00000000  0.22614566
   0.66666667  0.33333333  0.22614566
   0.66666667  0.66666667  0.22614566
   0.16666667  0.16666667  0.28268207
   0.16666667  0.50000000  0.28268207
   0.16666667  0.83333333  0.28268207
   0.50000000  0.16666667  0.28268207
   0.50000000  0.50000000  0.28268207
   0.50000000  0.83333333  0.28268207
   0.83333333  0.16666667  0.28268207
   0.83333333  0.50000000  0.28268207
   0.83333333  0.83333333  0.28268207
   0.00000000  0.00000000  0.33921849
   0.00000000  0.33333333  0.33921849
   0.00000000  0.66666667  0.33921849
   0.33333333  0.00000000  0.33921849
   0.33333333  0.33333333  0.33921849
   0.33333333  0.66666667  0.33921849
   0.66666667  0.00000000  0.33921849
   0.66666667  0.33333333  0.33921849
   0.66666667  0.66666667  0.33921849
 
 position of ions in cartesian coordinates  (Angst):
   0.00000000  0.00000000  0.00000000
   0.00000000  2.56679773  0.00000000
   0.00000000  5.13359547  0.00000000
   3.63000011  0.00000000  0.00000000
   3.63000011  2.56679773  0.00000000
   3.63000011  5.13359547  0.00000000
   7.26000023  0.00000000  0.00000000
   7.26000023  2.56679773  0.00000000
   7.26000023  5.13359547  0.00000000
   1.81500006  1.28339887  1.28339883
   1.81500006  3.85019660  1.28339883
   1.81500006  6.41699433  1.28339883
   5.44500017  1.28339887  1.28339883
   5.44500017  3.85019660  1.28339883
   5.44500017  6.41699433  1.28339883
   9.07500029  1.28339887  1.28339883
   9.07500029  3.85019660  1.28339883
   9.07500029  6.41699433  1.28339883
   0.00000000  0.00000000  2.56679766
   0.00000000  2.56679773  2.56679766
   0.00000000  5.13359547  2.56679766
   3.63000011  0.00000000  2.56679766
   3.63000011  2.56679773  2.56679766
   3.63000011  5.13359547  2.56679766
   7.26000023  0.00000000  2.56679766
   7.26000023  2.56679773  2.56679766
   7.26000023  5.13359547  2.56679766
   1.81500006  1.28339887  3.85019648
   1.81500006  3.85019660  3.85019648
   1.81500006  6.41699433  3.85019648
   5.44500017  1.28339887  3.85019648
   5.44500017  3.85019660  3.85019648
   5.44500017  6.41699433  3.85019648
   9.07500029  1.28339887  3.85019648
   9.07500029  3.85019660  3.85019648
   9.07500029  6.41699433  3.85019648
   0.00000000  0.00000000  5.13359531
   0.00000000  2.56679773  5.13359531
   0.00000000  5.13359547  5.13359531
   3.63000011  0.00000000  5.13359531
   3.63000011  2.56679773  5.13359531
   3.63000011  5.13359547  5.13359531
   7.26000023  0.00000000  5.13359531
   7.26000023  2.56679773  5.13359531
   7.26000023  5.13359547  5.13359531
   1.81500006  1.28339887  6.41699414
   1.81500006  3.85019660  6.41699414
   1.81500006  6.41699433  6.41699414
   5.44500017  1.28339887  6.41699414
   5.44500017  3.85019660  6.41699414
   5.44500017  6.41699433  6.41699414
   9.07500029  1.28339887  6.41699414
   9.07500029  3.85019660  6.41699414
   9.07500029  6.41699433  6.41699414
   0.00000000  0.00000000  7.70039297
   0.00000000  2.56679773  7.70039297
   0.00000000  5.13359547  7.70039297
   3.63000011  0.00000000  7.70039297
   3.63000011  2.56679773  7.70039297
   3.63000011  5.13359547  7.70039297
   7.26000023  0.00000000  7.70039297
   7.26000023  2.56679773  7.70039297
   7.26000023  5.13359547  7.70039297
 


--------------------------------------------------------------------------------------------------------


 k-point   1 :   0.0000 0.0000 0.0000  plane waves:   34541
 k-point   2 :   0.3333 0.0000 0.0000  plane waves:   34596
 k-point   3 :   0.0000 0.3333 0.0000  plane waves:   34589
 k-point   4 :   0.3333 0.3333 0.0000  plane waves:   34532

 maximum and minimum number of plane-waves per node :      6946     6879

 maximum number of plane-waves:     34596
 maximum index in each direction: 
   IXMAX=   17   IYMAX=   12   IZMAX=   37
   IXMIN=  -18   IYMIN=  -12   IZMIN=  -37


 parallel 3D FFT for wavefunctions:
    minimum data exchange during FFTs selected (reduces bandwidth)
 parallel 3D FFT for charge:
    minimum data exchange during FFTs selected (reduces bandwidth)


 total amount of memory used by VASP MPI-rank0   160822. kBytes
=======================================================================

   base      :      30000. kBytes
   nonl-proj :      10967. kBytes
   fftplans  :       5055. kBytes
   grid      :      11751. kBytes
   one-center:        404. kBytes
   wavefun   :     102645. kBytes
 
     INWAV:  cpu time      0.0000: real time      0.0005
 Broyden mixing: mesh for mixing (old mesh)
   NGX = 35   NGY = 25   NGZ = 75
  (NGX  =108   NGY  = 80   NGZ  =224)
  gives a total of  65625 points

 initial charge density was supplied:
 charge density of overlapping atoms calculated
 number of electron     693.0000000 magnetization      63.0000000
 keeping initial charge density in first step


--------------------------------------------------------------------------------------------------------


 Maximum index for augmentation-charges          366 (set IRDMAX)


--------------------------------------------------------------------------------------------------------


 First call to EWALD:  gamma=   0.143
 Maximum number of real-space cells 3x 4x 2
 Maximum number of reciprocal cells 2x 2x 5

    FEWALD:  cpu time      0.0034: real time      0.0034


--------------------------------------- Iteration      1(   1)  ---------------------------------------


    POTLOK:  cpu time      0.1393: real time      0.1709
    SETDIJ:  cpu time      0.0236: real time      0.0237
     EDDAV:  cpu time     65.1210: real time     65.6328
       DOS:  cpu time      0.0042: real time      0.0043
    --------------------------------------------
      LOOP:  cpu time     65.2882: real time     65.8317

 eigenvalue-minimisations  :  7168
 total energy-change (2. order) : 0.6315883E+04  (-0.2480968E+05)
 number of electron     693.0000000 magnetization      63.0000000
 augmentation part      693.0000000 magnetization      63.0000000

 Free energy of the ion-electron system (eV)
  ---------------------------------------------------
  alpha Z        PSCENC =      1524.82200598
  Ewald energy   TEWEN  =    294420.48931247
  -Hartree energ DENC   =   -378921.60185116
  -exchange      EXHF   =         0.00000000
  -V(xc)+E(xc)   XCENC  =      2872.81064200
  PAW double counting   =     77370.14225108   -84037.01868607
  entropy T*S    EENTRO =        -0.00206791
  eigenvalues    EBANDS =      5455.91044828
  atomic energy  EATOM  =     87630.33133259
  Solvation  Ediel_sol  =         0.00000000
  ---------------------------------------------------
  free energy    TOTEN  =      6315.88338726 eV

  energy without entropy =     6315.88545517  energy(sigma->0) =     6315.88407657


--------------------------------------------------------------------------------------------------------




--------------------------------------- Iteration      1(   2)  ---------------------------------------


     EDDAV:  cpu time     68.6755: real time     69.8794
       DOS:  cpu time      0.0048: real time      0.0048
    --------------------------------------------
      LOOP:  cpu time     68.6802: real time     69.8842

 eigenvalue-minimisations  :  7168
 total energy-change (2. order) :-0.5604118E+04  (-0.5367259E+04)
 number of electron     693.0000000 magnetization      63.0000000
 augmentation part      693.0000000 magnetization      63.0000000

 Free energy of the ion-electron system (eV)
  ---------------------------------------------------
  alpha Z        PSCENC =      1524.82200598
  Ewald energy   TEWEN  =    294420.48931247
  -Hartree energ DENC   =   -378921.60185116
  -exchange      EXHF   =         0.00000000
  -V(xc)+E(xc)   XCENC  =      2872.81064200
  PAW double counting   =     77370.14225108   -84037.01868607
  entropy T*S    EENTRO =         0.02517853
  eigenvalues    EBANDS =      -148.23479959
  atomic energy  EATOM  =     87630.33133259
  Solvation  Ediel_sol  =         0.00000000
  ---------------------------------------------------
  free energy    TOTEN  =       711.76538582 eV

  energy without entropy =      711.74020729  energy(sigma->0) =      711.75699298


--------------------------------------------------------------------------------------------------------




--------------------------------------- Iteration      1(   3)  ---------------------------------------


     EDDAV:  cpu time     64.0019: real time     64.4184
       DOS:  cpu time      0.0053: real time      0.0053
    --------------------------------------------
      LOOP:  cpu time     64.0072: real time     64.4237

 eigenvalue-minimisations  :  7168
 total energy-change (2. order) :-0.9073268E+03  (-0.8156418E+03)
 number of electron     693.0000000 magnetization      63.0000000
 augmentation part      693.0000000 magnetization      63.0000000

 Free energy of the ion-electron system (eV)
  ---------------------------------------------------
  alpha Z        PSCENC =      1524.82200598
  Ewald energy   TEWEN  =    294420.48931247
  -Hartree energ DENC   =   -378921.60185116
  -exchange      EXHF   =         0.00000000
  -V(xc)+E(xc)   XCENC  =      2872.81064200
  PAW double counting   =     77370.14225108   -84037.01868607
  entropy T*S    EENTRO =         0.10634120
  eigenvalues    EBANDS =     -1055.64277157
  atomic energy  EATOM  =     87630.33133259
  Solvation  Ediel_sol  =         0.00000000
  ---------------------------------------------------
  free energy    TOTEN  =      -195.56142348 eV

  energy without entropy =     -195.66776468  energy(sigma->0) =     -195.59687055


--------------------------------------------------------------------------------------------------------




--------------------------------------- Iteration      1(   4)  ---------------------------------------


     EDDAV:  cpu time     70.0988: real time     70.5598
       DOS:  cpu time      0.0055: real time      0.0055
    --------------------------------------------
      LOOP:  cpu time     70.1043: real time     70.5653

 eigenvalue-minimisations  :  8048
 total energy-change (2. order) :-0.6133075E+02  (-0.5927330E+02)
 number of electron     693.0000000 magnetization      63.0000000
 augmentation part      693.0000000 magnetization      63.0000000

 Free energy of the ion-electron system (eV)
  ---------------------------------------------------
  alpha Z        PSCENC =      1524.82200598
  Ewald energy   TEWEN  =    294420.48931247
  -Hartree energ DENC   =   -378921.60185116
  -exchange      EXHF   =         0.00000000
  -V(xc)+E(xc)   XCENC  =      2872.81064200
  PAW double counting   =     77370.14225108   -84037.01868607
  entropy T*S    EENTRO =         0.12814752
  eigenvalues    EBANDS =     -1116.99533227
  atomic energy  EATOM  =     87630.33133259
  Solvation  Ediel_sol  =         0.00000000
  ---------------------------------------------------
  free energy    TOTEN  =      -256.89217787 eV

  energy without entropy =     -257.02032539  energy(sigma->0) =     -256.93489371


--------------------------------------------------------------------------------------------------------




--------------------------------------- Iteration      1(   5)  ---------------------------------------


     EDDAV:  cpu time     71.2454: real time     71.7176
       DOS:  cpu time      0.0059: real time      0.0059
    CHARGE:  cpu time      1.6763: real time      1.6844
    MIXING:  cpu time      0.0794: real time      0.0797
    --------------------------------------------
      LOOP:  cpu time     73.0071: real time     73.4876

 eigenvalue-minimisations  :  8104
 total energy-change (2. order) :-0.1494731E+01  (-0.1488967E+01)
 number of electron     693.0004526 magnetization      56.9647256
 augmentation part      411.3432976 magnetization      56.3992880

 Broyden mixing:
  rms(total) = 0.72405E+01    rms(broyden)= 0.72401E+01
  rms(prec ) = 0.75035E+01
  weight for this iteration     100.00

 Free energy of the ion-electron system (eV)
  ---------------------------------------------------
  alpha Z        PSCENC =      1524.82200598
  Ewald energy   TEWEN  =    294420.48931247
  -Hartree energ DENC   =   -378921.60185116
  -exchange      EXHF   =         0.00000000
  -V(xc)+E(xc)   XCENC  =      2872.81064200
  PAW double counting   =     77370.14225108   -84037.01868607
  entropy T*S    EENTRO =         0.12958034
  eigenvalues    EBANDS =     -1118.49149616
  atomic energy  EATOM  =     87630.33133259
  Solvation  Ediel_sol  =         0.00000000
  ---------------------------------------------------
  free energy    TOTEN  =      -258.38690894 eV

  energy without entropy =     -258.51648928  energy(sigma->0) =     -258.43010238


--------------------------------------------------------------------------------------------------------




--------------------------------------- Iteration      1(   6)  ---------------------------------------


    POTLOK:  cpu time      0.1438: real time      0.1491
    SETDIJ:  cpu time      0.0226: real time      0.0227
     EDDAV:  cpu time     71.8254: real time     73.4590
       DOS:  cpu time      0.0054: real time      0.0054
    CHARGE:  cpu time      1.5674: real time      1.5756
    MIXING:  cpu time      0.0097: real time      0.0098
    --------------------------------------------
      LOOP:  cpu time     73.5743: real time     75.2215

 eigenvalue-minimisations  :  7704
 total energy-change (2. order) : 0.4953670E+02  (-0.6252712E+02)
 number of electron     693.0004960 magnetization      53.1945284
 augmentation part      462.6566769 magnetization      39.1154626

 Broyden mixing:
  rms(total) = 0.36979E+01    rms(broyden)= 0.36972E+01
  rms(prec ) = 0.38785E+01
  weight for this iteration     100.00

 eigenvalues of (default mixing * dielectric matrix)
  average eigenvalue GAMMA=   0.7930
  0.7930

 Free energy of the ion-electron system (eV)
  ---------------------------------------------------
  alpha Z        PSCENC =      1524.82200598
  Ewald energy   TEWEN  =    294420.48931247
  -Hartree energ DENC   =   -377292.99065245
  -exchange      EXHF   =         0.00000000
  -V(xc)+E(xc)   XCENC  =      2802.70496934
  PAW double counting   =     78150.87731244   -84483.34357106
  entropy T*S    EENTRO =        -0.00361582
  eigenvalues    EBANDS =     -2961.73730128
  atomic energy  EATOM  =     87630.33133259
  Solvation  Ediel_sol  =         0.00000000
  ---------------------------------------------------
  free energy    TOTEN  =      -208.85020779 eV

  energy without entropy =     -208.84659197  energy(sigma->0) =     -208.84900251


--------------------------------------------------------------------------------------------------------




--------------------------------------- Iteration      1(   7)  ---------------------------------------


    POTLOK:  cpu time      0.1440: real time      0.1497
    SETDIJ:  cpu time      0.0228: real time      0.0229
     EDDAV:  cpu time     68.1570: real time     68.6382
       DOS:  cpu time      0.0052: real time      0.0052
    CHARGE:  cpu time      1.5729: real time      1.5820
    MIXING:  cpu time      0.0086: real time      0.0087
    --------------------------------------------
      LOOP:  cpu time     69.9106: real time     70.4067

 eigenvalue-minimisations  :  7848
 total energy-change (2. order) : 0.2938282E+02  (-0.1621660E+02)
 number of electron     693.0004857 magnetization      49.1156517
 augmentation part      444.7334238 magnetization      34.0187583

 Broyden mixing:
  rms(total) = 0.18213E+01    rms(broyden)= 0.18210E+01
  rms(prec ) = 0.18568E+01
  weight for this iteration     100.00

 eigenvalues of (default mixing * dielectric matrix)
  average eigenvalue GAMMA=   0.8086
  0.9860  0.6313

 Free energy of the ion-electron system (eV)
  ---------------------------------------------------
  alpha Z        PSCENC =      1524.82200598
  Ewald energy   TEWEN  =    294420.48931247
  -Hartree energ DENC   =   -378185.32053432
  -exchange      EXHF   =         0.00000000
  -V(xc)+E(xc)   XCENC  =      2838.10909870
  PAW double counting   =     79761.78022201   -86409.64293851
  entropy T*S    EENTRO =        -0.00661640
  eigenvalues    EBANDS =     -1760.02927171
  atomic energy  EATOM  =     87630.33133259
  Solvation  Ediel_sol  =         0.00000000
  ---------------------------------------------------
  free energy    TOTEN  =      -179.46738920 eV

  energy without entropy =     -179.46077279  energy(sigma->0) =     -179.46518373


--------------------------------------------------------------------------------------------------------




--------------------------------------- Iteration      1(   8)  ---------------------------------------


    POTLOK:  cpu time      0.1336: real time      0.1391
    SETDIJ:  cpu time      0.0227: real time      0.0228
     EDDAV:  cpu time     71.4430: real time     71.8984
       DOS:  cpu time      0.0055: real time      0.0056
    CHARGE:  cpu time      1.5930: real time      1.6011
    MIXING:  cpu time      0.0099: real time      0.0099
    --------------------------------------------
      LOOP:  cpu time     73.2078: real time     73.6769

 eigenvalue-minimisations  :  8304
 total energy-change (2. order) : 0.4125663E+01  (-0.4178306E+01)
 number of electron     693.0004765 magnetization      44.6912861
 augmentation part      442.3328480 magnetization      28.0841002

 Broyden mixing:
  rms(total) = 0.16726E+01    rms(broyden)= 0.16725E+01
  rms(prec ) = 0.17407E+01
  weight for this iteration     100.00

 eigenvalues of (default mixing * dielectric matrix)
  average eigenvalue GAMMA=   0.7224
  1.0918  0.6595  0.4159

 Free energy of the ion-electron system (eV)
  ---------------------------------------------------
  alpha Z        PSCENC =      1524.82200598
  Ewald energy   TEWEN  =    294420.48931247
  -Hartree energ DENC   =   -378276.71173931
  -exchange      EXHF   =         0.00000000
  -V(xc)+E(xc)   XCENC  =      2842.36825743
  PAW double counting   =     80670.06444498   -87392.07679503
  entropy T*S    EENTRO =         0.00374000
  eigenvalues    EBANDS =     -1594.63228500
  atomic energy  EATOM  =     87630.33133259
  Solvation  Ediel_sol  =         0.00000000
  ---------------------------------------------------
  free energy    TOTEN  =      -175.34172589 eV

  energy without entropy =     -175.34546590  energy(sigma->0) =     -175.34297256


--------------------------------------------------------------------------------------------------------




--------------------------------------- Iteration      1(   9)  ---------------------------------------


    POTLOK:  cpu time      0.1334: real time      0.1387
    SETDIJ:  cpu time      0.0227: real time      0.0228
     EDDAV:  cpu time     83.0385: real time     83.6669
       DOS:  cpu time      0.0054: real time      0.0054
    CHARGE:  cpu time      1.5544: real time      1.5622
    MIXING:  cpu time      0.0094: real time      0.0094
    --------------------------------------------
      LOOP:  cpu time     84.7639: real time     85.4054

 eigenvalue-minimisations  :  9864
 total energy-change (2. order) : 0.4157881E+01  (-0.1168824E+01)
 number of electron     693.0004790 magnetization      30.8619886
 augmentation part      441.3731282 magnetization      14.3198581

 Broyden mixing:
  rms(total) = 0.12703E+01    rms(broyden)= 0.12702E+01
  rms(prec ) = 0.12794E+01
  weight for this iteration     100.00

 eigenvalues of (default mixing * dielectric matrix)
  average eigenvalue GAMMA=   1.1445
  2.2935  1.1530  0.7468  0.3845

 Free energy of the ion-electron system (eV)
  ---------------------------------------------------
  alpha Z        PSCENC =      1524.82200598
  Ewald energy   TEWEN  =    294420.48931247
  -Hartree energ DENC   =   -378401.68850981
  -exchange      EXHF   =         0.00000000
  -V(xc)+E(xc)   XCENC  =      2842.00966338
  PAW double counting   =     81424.05173624   -88193.37724127
  entropy T*S    EENTRO =        -0.00778043
  eigenvalues    EBANDS =     -1417.81436392
  atomic energy  EATOM  =     87630.33133259
  Solvation  Ediel_sol  =         0.00000000
  ---------------------------------------------------
  free energy    TOTEN  =      -171.18384477 eV

  energy without entropy =     -171.17606435  energy(sigma->0) =     -171.18125130


--------------------------------------------------------------------------------------------------------




--------------------------------------- Iteration      1(  10)  ---------------------------------------


    POTLOK:  cpu time      0.1349: real time      0.1395
    SETDIJ:  cpu time      0.0288: real time      0.0289
     EDDAV:  cpu time     86.8149: real time     87.9234
       DOS:  cpu time      0.0066: real time      0.0066
    CHARGE:  cpu time      1.6090: real time      1.6173
    MIXING:  cpu time      0.0151: real time      0.0159
    --------------------------------------------
      LOOP:  cpu time     88.6093: real time     89.7315

 eigenvalue-minimisations  : 10056
 total energy-change (2. order) : 0.3067476E+01  (-0.1904279E+01)
 number of electron     693.0004839 magnetization      22.3635265
 augmentation part      445.8284765 magnetization       7.9057738

 Broyden mixing:
  rms(total) = 0.10441E+01    rms(broyden)= 0.10440E+01
  rms(prec ) = 0.10867E+01
  weight for this iteration     100.00

 eigenvalues of (default mixing * dielectric matrix)
  average eigenvalue GAMMA=   1.2879
  3.7080  1.1035  0.6221  0.6221  0.3837

 Free energy of the ion-electron system (eV)
  ---------------------------------------------------
  alpha Z        PSCENC =      1524.82200598
  Ewald energy   TEWEN  =    294420.48931247
  -Hartree energ DENC   =   -378294.50266720
  -exchange      EXHF   =         0.00000000
  -V(xc)+E(xc)   XCENC  =      2832.77766110
  PAW double counting   =     82566.48942532   -89353.13897327
  entropy T*S    EENTRO =        -0.04131131
  eigenvalues    EBANDS =     -1495.34315457
  atomic energy  EATOM  =     87630.33133259
  Solvation  Ediel_sol  =         0.00000000
  ---------------------------------------------------
  free energy    TOTEN  =      -168.11636889 eV

  energy without entropy =     -168.07505758  energy(sigma->0) =     -168.10259845


--------------------------------------------------------------------------------------------------------




--------------------------------------- Iteration      1(  11)  ---------------------------------------


    POTLOK:  cpu time      0.1333: real time      0.1386
    SETDIJ:  cpu time      0.0226: real time      0.0228
     EDDAV:  cpu time     70.0161: real time     70.4905
       DOS:  cpu time      0.0067: real time      0.0068
    CHARGE:  cpu time      1.6096: real time      1.6180
    MIXING:  cpu time      0.0118: real time      0.0119
    --------------------------------------------
      LOOP:  cpu time     71.8003: real time     72.2885

 eigenvalue-minimisations  :  8128
 total energy-change (2. order) :-0.4015121E+01  (-0.7330034E+00)
 number of electron     693.0004822 magnetization      15.6637336
 augmentation part      445.5517314 magnetization       2.6014328

 Broyden mixing:
  rms(total) = 0.83375E+00    rms(broyden)= 0.83369E+00
  rms(prec ) = 0.86972E+00
  weight for this iteration     100.00

 eigenvalues of (default mixing * dielectric matrix)
  average eigenvalue GAMMA=   1.3894
  4.8441  1.0828  0.7948  0.7948  0.3820  0.4380

 Free energy of the ion-electron system (eV)
  ---------------------------------------------------
  alpha Z        PSCENC =      1524.82200598
  Ewald energy   TEWEN  =    294420.48931247
  -Hartree energ DENC   =   -378450.97548770
  -exchange      EXHF   =         0.00000000
  -V(xc)+E(xc)   XCENC  =      2829.75792396
  PAW double counting   =     83079.44700448   -89898.82221890
  entropy T*S    EENTRO =        -0.04710483
  eigenvalues    EBANDS =     -1307.13425754
  atomic energy  EATOM  =     87630.33133259
  Solvation  Ediel_sol  =         0.00000000
  ---------------------------------------------------
  free energy    TOTEN  =      -172.13148950 eV

  energy without entropy =     -172.08438467  energy(sigma->0) =     -172.11578789


--------------------------------------------------------------------------------------------------------




--------------------------------------- Iteration      1(  12)  ---------------------------------------


    POTLOK:  cpu time      0.1416: real time      0.1476
    SETDIJ:  cpu time      0.0226: real time      0.0227
     EDDAV:  cpu time     74.4619: real time     74.9566
       DOS:  cpu time      0.0057: real time      0.0058
    CHARGE:  cpu time      1.5958: real time      1.6042
    MIXING:  cpu time      0.0092: real time      0.0093
    --------------------------------------------
      LOOP:  cpu time     76.2369: real time     76.7462

 eigenvalue-minimisations  :  8760
 total energy-change (2. order) :-0.7956664E+01  (-0.5484486E+00)
 number of electron     693.0004798 magnetization       9.9560747
 augmentation part      443.3680579 magnetization      -1.0762292

 Broyden mixing:
  rms(total) = 0.41017E+00    rms(broyden)= 0.41012E+00
  rms(prec ) = 0.43383E+00
  weight for this iteration     100.00

 eigenvalues of (default mixing * dielectric matrix)
  average eigenvalue GAMMA=   1.6430
  6.7442  1.5548  0.9728  0.7390  0.6985  0.3794  0.4120

 Free energy of the ion-electron system (eV)
  ---------------------------------------------------
  alpha Z        PSCENC =      1524.82200598
  Ewald energy   TEWEN  =    294420.48931247
  -Hartree energ DENC   =   -378607.74489896
  -exchange      EXHF   =         0.00000000
  -V(xc)+E(xc)   XCENC  =      2827.96177360
  PAW double counting   =     83134.16288423   -89978.70113421
  entropy T*S    EENTRO =        -0.07430153
  eigenvalues    EBANDS =     -1131.33512815
  atomic energy  EATOM  =     87630.33133259
  Solvation  Ediel_sol  =         0.00000000
  ---------------------------------------------------
  free energy    TOTEN  =      -180.08815397 eV

  energy without entropy =     -180.01385244  energy(sigma->0) =     -180.06338680


--------------------------------------------------------------------------------------------------------




--------------------------------------- Iteration      1(  13)  ---------------------------------------


    POTLOK:  cpu time      0.1332: real time      0.1379
    SETDIJ:  cpu time      0.0226: real time      0.0227
     EDDAV:  cpu time     79.4967: real time     80.1106
       DOS:  cpu time      0.0056: real time      0.0057
    CHARGE:  cpu time      1.6294: real time      1.6378
    MIXING:  cpu time      0.0070: real time      0.0070
    --------------------------------------------
      LOOP:  cpu time     81.2945: real time     81.9217

 eigenvalue-minimisations  :  9392
 total energy-change (2. order) :-0.1422373E+02  (-0.1027187E+01)
 number of electron     693.0004780 magnetization       7.0518707
 augmentation part      441.4806540 magnetization      -0.3986945

 Broyden mixing:
  rms(total) = 0.37872E+00    rms(broyden)= 0.37865E+00
  rms(prec ) = 0.40535E+00
  weight for this iteration     100.00

 eigenvalues of (default mixing * dielectric matrix)
  average eigenvalue GAMMA=   1.8120
  8.2693  2.1317  1.0241  0.8426  0.8426  0.6037  0.3909  0.3909

 Free energy of the ion-electron system (eV)
  ---------------------------------------------------
  alpha Z        PSCENC =      1524.82200598
  Ewald energy   TEWEN  =    294420.48931247
  -Hartree energ DENC   =   -378637.90364424
  -exchange      EXHF   =         0.00000000
  -V(xc)+E(xc)   XCENC  =      2822.08409484
  PAW double counting   =     82511.83922220   -89333.43931855
  entropy T*S    EENTRO =        -0.05462839
  eigenvalues    EBANDS =     -1132.48025948
  atomic energy  EATOM  =     87630.33133259
  Solvation  Ediel_sol  =         0.00000000
  ---------------------------------------------------
  free energy    TOTEN  =      -194.31188258 eV

  energy without entropy =     -194.25725419  energy(sigma->0) =     -194.29367312


--------------------------------------------------------------------------------------------------------




--------------------------------------- Iteration      1(  14)  ---------------------------------------


    POTLOK:  cpu time      0.1335: real time      0.1422
    SETDIJ:  cpu time      0.0227: real time      0.0229
     EDDAV:  cpu time     84.3773: real time     85.4028
       DOS:  cpu time      0.0051: real time      0.0051
    CHARGE:  cpu time      1.5648: real time      1.5728
    MIXING:  cpu time      0.0113: real time      0.0114
    --------------------------------------------
      LOOP:  cpu time     86.1148: real time     87.1571

 eigenvalue-minimisations  :  9528
 total energy-change (2. order) :-0.9202815E+01  (-0.6452308E+00)
 number of electron     693.0004781 magnetization       4.7027174
 augmentation part      441.9607832 magnetization      -0.0193726

 Broyden mixing:
  rms(total) = 0.29525E+00    rms(broyden)= 0.29518E+00
  rms(prec ) = 0.32681E+00
  weight for this iteration     100.00

 eigenvalues of (default mixing * dielectric matrix)
  average eigenvalue GAMMA=   1.8014
  9.0499  2.6086  1.0659  0.8531  0.8531  0.6164  0.4256  0.3879  0.3523

 Free energy of the ion-electron system (eV)
  ---------------------------------------------------
  alpha Z        PSCENC =      1524.82200598
  Ewald energy   TEWEN  =    294420.48931247
  -Hartree energ DENC   =   -378547.66031425
  -exchange      EXHF   =         0.00000000
  -V(xc)+E(xc)   XCENC  =      2815.49599323
  PAW double counting   =     82073.33195131   -88860.86972695
  entropy T*S    EENTRO =        -0.02388054
  eigenvalues    EBANDS =     -1259.43137101
  atomic energy  EATOM  =     87630.33133259
  Solvation  Ediel_sol  =         0.00000000
  ---------------------------------------------------
  free energy    TOTEN  =      -203.51469717 eV

  energy without entropy =     -203.49081664  energy(sigma->0) =     -203.50673699


--------------------------------------------------------------------------------------------------------




--------------------------------------- Iteration      1(  15)  ---------------------------------------


    POTLOK:  cpu time      0.1343: real time      0.1402
    SETDIJ:  cpu time      0.0227: real time      0.0228
     EDDAV:  cpu time     75.4488: real time     76.0357
       DOS:  cpu time      0.0049: real time      0.0049
    CHARGE:  cpu time      1.5706: real time      1.5801
    MIXING:  cpu time      0.0153: real time      0.0154
    --------------------------------------------
      LOOP:  cpu time     77.1965: real time     77.7991

 eigenvalue-minimisations  :  8904
 total energy-change (2. order) :-0.6118924E+01  (-0.5349943E+00)
 number of electron     693.0004797 magnetization       3.3312594
 augmentation part      442.5932112 magnetization       0.5613053

 Broyden mixing:
  rms(total) = 0.18154E+00    rms(broyden)= 0.18144E+00
  rms(prec ) = 0.20352E+00
  weight for this iteration     100.00

 eigenvalues of (default mixing * dielectric matrix)
  average eigenvalue GAMMA=   1.7873
  9.6245  3.0706  0.9684  0.8825  0.8825  0.6700  0.6700  0.3860  0.3860  0.3324

 Free energy of the ion-electron system (eV)
  ---------------------------------------------------
  alpha Z        PSCENC =      1524.82200598
  Ewald energy   TEWEN  =    294420.48931247
  -Hartree energ DENC   =   -378470.42905814
  -exchange      EXHF   =         0.00000000
  -V(xc)+E(xc)   XCENC  =      2810.96970168
  PAW double counting   =     81770.27495236   -88532.67050115
  entropy T*S    EENTRO =         0.01576452
  eigenvalues    EBANDS =     -1363.43713135
  atomic energy  EATOM  =     87630.33133259
  Solvation  Ediel_sol  =         0.00000000
  ---------------------------------------------------
  free energy    TOTEN  =      -209.63362104 eV

  energy without entropy =     -209.64938556  energy(sigma->0) =     -209.63887588


--------------------------------------------------------------------------------------------------------




--------------------------------------- Iteration      1(  16)  ---------------------------------------


    POTLOK:  cpu time      0.1325: real time      0.1382
    SETDIJ:  cpu time      0.0226: real time      0.0227
     EDDAV:  cpu time     75.1857: real time     75.7492
       DOS:  cpu time      0.0061: real time      0.0061
    CHARGE:  cpu time      1.5604: real time      1.5696
    MIXING:  cpu time      0.0158: real time      0.0159
    --------------------------------------------
      LOOP:  cpu time     76.9231: real time     77.5017

 eigenvalue-minimisations  :  8872
 total energy-change (2. order) :-0.3354580E+01  (-0.3606201E+00)
 number of electron     693.0004807 magnetization       3.0567602
 augmentation part      443.1283171 magnetization       1.5942090

 Broyden mixing:
  rms(total) = 0.17635E+00    rms(broyden)= 0.17629E+00
  rms(prec ) = 0.18887E+00
  weight for this iteration     100.00

 eigenvalues of (default mixing * dielectric matrix)
  average eigenvalue GAMMA=   1.8086
 10.2720  3.4098  1.1617  1.1617  0.7910  0.7910  0.7189  0.5367  0.3875  0.3902
  0.2737

 Free energy of the ion-electron system (eV)
  ---------------------------------------------------
  alpha Z        PSCENC =      1524.82200598
  Ewald energy   TEWEN  =    294420.48931247
  -Hartree energ DENC   =   -378406.14573982
  -exchange      EXHF   =         0.00000000
  -V(xc)+E(xc)   XCENC  =      2808.58875967
  PAW double counting   =     81628.15363266   -88378.24949667
  entropy T*S    EENTRO =         0.00641407
  eigenvalues    EBANDS =     -1440.98442192
  atomic energy  EATOM  =     87630.33133259
  Solvation  Ediel_sol  =         0.00000000
  ---------------------------------------------------
  free energy    TOTEN  =      -212.98820097 eV

  energy without entropy =     -212.99461504  energy(sigma->0) =     -212.99033899


--------------------------------------------------------------------------------------------------------




--------------------------------------- Iteration      1(  17)  ---------------------------------------


    POTLOK:  cpu time      0.1337: real time      0.1398
    SETDIJ:  cpu time      0.0226: real time      0.0227
     EDDAV:  cpu time     75.9123: real time     76.4743
       DOS:  cpu time      0.0054: real time      0.0054
    CHARGE:  cpu time      1.5899: real time      1.5983
    MIXING:  cpu time      0.0117: real time      0.0118
    --------------------------------------------
      LOOP:  cpu time     77.6756: real time     78.2522

 eigenvalue-minimisations  :  8864
 total energy-change (2. order) :-0.1583854E+01  (-0.1109478E+00)
 number of electron     693.0004801 magnetization       2.7593665
 augmentation part      443.2021109 magnetization       1.8193641

 Broyden mixing:
  rms(total) = 0.14460E+00    rms(broyden)= 0.14457E+00
  rms(prec ) = 0.15182E+00
  weight for this iteration     100.00

 eigenvalues of (default mixing * dielectric matrix)
  average eigenvalue GAMMA=   1.8119
 10.8559  3.6172  1.4208  1.2836  0.8752  0.8752  0.7462  0.6272  0.4086  0.3829
  0.3829  0.2675

 Free energy of the ion-electron system (eV)
  ---------------------------------------------------
  alpha Z        PSCENC =      1524.82200598
  Ewald energy   TEWEN  =    294420.48931247
  -Hartree energ DENC   =   -378371.43422880
  -exchange      EXHF   =         0.00000000
  -V(xc)+E(xc)   XCENC  =      2807.48877248
  PAW double counting   =     81652.70751345   -88405.55442729
  entropy T*S    EENTRO =         0.00412959
  eigenvalues    EBANDS =     -1473.42646506
  atomic energy  EATOM  =     87630.33133259
  Solvation  Ediel_sol  =         0.00000000
  ---------------------------------------------------
  free energy    TOTEN  =      -214.57205461 eV

  energy without entropy =     -214.57618419  energy(sigma->0) =     -214.57343113


--------------------------------------------------------------------------------------------------------




--------------------------------------- Iteration      1(  18)  ---------------------------------------


    POTLOK:  cpu time      0.1331: real time      0.1386
    SETDIJ:  cpu time      0.0226: real time      0.0227
     EDDAV:  cpu time     73.0684: real time     74.1938
       DOS:  cpu time      0.0059: real time      0.0059
    CHARGE:  cpu time      1.5844: real time      1.5923
    MIXING:  cpu time      0.0134: real time      0.0134
    --------------------------------------------
      LOOP:  cpu time     74.8278: real time     75.9667

 eigenvalue-minimisations  :  7888
 total energy-change (2. order) :-0.1288436E+01  (-0.5818319E-01)
 number of electron     693.0004799 magnetization       1.8148204
 augmentation part      442.7154074 magnetization       1.1876317

 Broyden mixing:
  rms(total) = 0.79040E-01    rms(broyden)= 0.79023E-01
  rms(prec ) = 0.89371E-01
  weight for this iteration     100.00

 eigenvalues of (default mixing * dielectric matrix)
  average eigenvalue GAMMA=   1.8348
 11.2724  3.9564  2.0510  1.1014  1.1014  0.8331  0.8331  0.6436  0.6436  0.3932
  0.3812  0.3739  0.2679

 Free energy of the ion-electron system (eV)
  ---------------------------------------------------
  alpha Z        PSCENC =      1524.82200598
  Ewald energy   TEWEN  =    294420.48931247
  -Hartree energ DENC   =   -378354.00778621
  -exchange      EXHF   =         0.00000000
  -V(xc)+E(xc)   XCENC  =      2806.97933022
  PAW double counting   =     81758.76376427   -88525.02778846
  entropy T*S    EENTRO =         0.00434281
  eigenvalues    EBANDS =     -1478.21500453
  atomic energy  EATOM  =     87630.33133259
  Solvation  Ediel_sol  =         0.00000000
  ---------------------------------------------------
  free energy    TOTEN  =      -215.86049086 eV

  energy without entropy =     -215.86483367  energy(sigma->0) =     -215.86193847


--------------------------------------------------------------------------------------------------------




--------------------------------------- Iteration      1(  19)  ---------------------------------------


    POTLOK:  cpu time      0.1335: real time      0.1386
    SETDIJ:  cpu time      0.0305: real time      0.0306
     EDDAV:  cpu time     81.1991: real time     81.7313
       DOS:  cpu time      0.0056: real time      0.0056
    CHARGE:  cpu time      1.5991: real time      1.6071
    MIXING:  cpu time      0.0137: real time      0.0138
    --------------------------------------------
      LOOP:  cpu time     82.9815: real time     83.5270

 eigenvalue-minimisations  :  9728
 total energy-change (2. order) :-0.8338839E+00  (-0.3024870E-01)
 number of electron     693.0004796 magnetization       1.4005777
 augmentation part      442.5817691 magnetization       1.1631148

 Broyden mixing:
  rms(total) = 0.66701E-01    rms(broyden)= 0.66685E-01
  rms(prec ) = 0.71677E-01
  weight for this iteration     100.00

 eigenvalues of (default mixing * dielectric matrix)
  average eigenvalue GAMMA=   1.8188
 11.3908  3.3849  3.0649  1.2447  1.2447  0.8453  0.8453  0.7080  0.7080  0.6151
  0.3910  0.3871  0.3661  0.2672

 Free energy of the ion-electron system (eV)
  ---------------------------------------------------
  alpha Z        PSCENC =      1524.82200598
  Ewald energy   TEWEN  =    294420.48931247
  -Hartree energ DENC   =   -378292.12615840
  -exchange      EXHF   =         0.00000000
  -V(xc)+E(xc)   XCENC  =      2806.15945150
  PAW double counting   =     81819.80666465   -88594.78405732
  entropy T*S    EENTRO =         0.00397298
  eigenvalues    EBANDS =     -1531.39689919
  atomic energy  EATOM  =     87630.33133259
  Solvation  Ediel_sol  =         0.00000000
  ---------------------------------------------------
  free energy    TOTEN  =      -216.69437474 eV

  energy without entropy =     -216.69834772  energy(sigma->0) =     -216.69569906


--------------------------------------------------------------------------------------------------------




--------------------------------------- Iteration      1(  20)  ---------------------------------------


    POTLOK:  cpu time      0.1355: real time      0.1400
    SETDIJ:  cpu time      0.0226: real time      0.0227
     EDDAV:  cpu time     73.2415: real time     73.7170
       DOS:  cpu time      0.0054: real time      0.0054
    CHARGE:  cpu time      1.5781: real time      1.5863
    MIXING:  cpu time      0.0192: real time      0.0193
    --------------------------------------------
      LOOP:  cpu time     75.0024: real time     75.4907

 eigenvalue-minimisations  :  8576
 total energy-change (2. order) :-0.5852370E+00  (-0.1209846E-01)
 number of electron     693.0004799 magnetization       1.1997089
 augmentation part      442.7793331 magnetization       0.9625839

 Broyden mixing:
  rms(total) = 0.56081E-01    rms(broyden)= 0.56075E-01
  rms(prec ) = 0.61444E-01
  weight for this iteration     100.00

 eigenvalues of (default mixing * dielectric matrix)
  average eigenvalue GAMMA=   1.7924
 11.4581  3.5796  3.5796  1.3107  1.2413  0.7927  0.7927  0.8360  0.8360  0.6172
  0.4321  0.3887  0.3887  0.3654  0.2671

 Free energy of the ion-electron system (eV)
  ---------------------------------------------------
  alpha Z        PSCENC =      1524.82200598
[...]
 dipol+quadrupol energy correction            0.000079 eV
 added-field ion interaction          0.000000 eV  (added to PSCEN)

 
  *************** adding dipol energy to TOTEN NOW **************** 
    CHARGE:  cpu time      1.5697: real time      1.5794
    FORLOC:  cpu time      0.0323: real time      0.0325
    FORNL :  cpu time     59.6756: real time     60.4078
    STRESS:  cpu time     74.5585: real time     74.9761
    FORCOR:  cpu time      0.1611: real time      0.1619
    FORHAR:  cpu time      0.0431: real time      0.0433
    MIXING:  cpu time      0.0046: real time      0.0046
    OFIELD:  cpu time      0.0001: real time      0.0001

 ---------------------------------------------------------------------------------------------

         DFTD3 V3.0 Rev 1        
 Edisp (eV)  -22.76827

 E6    (eV) :    -8.9969
 E8    (eV) :   -13.7714
 % E8        : 60.48
    FORVDW:  cpu time      0.3132: real time      0.3146

  FORCE on cell =-STRESS in cart. coord.  units (eV):
  Direction    XX          YY          ZZ          XY          YZ          ZX
  --------------------------------------------------------------------------------------
  Alpha Z  1524.82201  1524.82201  1524.82201
  Ewald  351128.65259352618.44291************    -0.00000     0.00000    -0.00000
  Hartree374795.89667375813.90313************     0.00000     0.00000    -0.00000
  E(xc)   -4048.51867 -4046.82237 -4053.06674     0.00000    -0.00000     0.00000
  Local  ************************749592.96215     0.00000    -0.00000     0.00000
  n-local -1374.00603 -1371.03683 -1380.04306    -1.17350    -0.00000     0.00000
  augment  5960.02305  5950.28071  5968.91081     0.00000     0.00000     0.00000
  Kinetic  5658.97896  5641.18399  5676.01749     0.66091     0.00000    -0.00000
  Fock        0.00000     0.00000     0.00000     0.00000     0.00000     0.00000
  vdW       -27.82063   -28.11163   -18.02691    -0.00000     0.00000    -0.00000
  -------------------------------------------------------------------------------------
  Total     -32.44201   -41.21356    -7.26309     0.00000     0.00000     0.00000
  in kB     -27.30513   -34.68778    -6.11305     0.00000     0.00000     0.00000
  external pressure =      -22.70 kB  Pullay stress =        0.00 kB


 VOLUME and BASIS-vectors are now :
 -----------------------------------------------------------------------------
  energy-cutoff  :      400.00
  volume of cell :     1903.59
      direct lattice vectors                 reciprocal lattice vectors
    10.890000343  0.000000000  0.000000000     0.091827362  0.000000000  0.000000000
     0.000000000  7.700393200  0.000000000     0.000000000  0.129863498  0.000000000
     0.000000000  0.000000000 22.700393000     0.000000000  0.000000000  0.044052101

  length of vectors
    10.890000343  7.700393200 22.700393000     0.091827362  0.129863498  0.044052101


 FORCES acting on ions
    electron-ion (+dipol)            ewald-force                    non-local-force                 convergence-correction
 -----------------------------------------------------------------------------------------------
   -.464E-13 0.544E-13 0.411E+04   -.192E-06 -.146E-08 -.410E+04   0.000E+00 0.000E+00 -.540E+01   0.165E-09 0.164E-10 -.642E-02
   -.481E-13 -.372E-04 0.411E+04   -.192E-06 0.439E-06 -.410E+04   -.827E-24 -.124E-20 -.540E+01   0.166E-09 -.189E-08 -.642E-02
   -.413E-13 0.368E-04 0.411E+04   -.192E-06 -.360E-06 -.410E+04   0.132E-22 0.000E+00 -.540E+01   0.166E-09 0.188E-08 -.642E-02
   0.176E-05 0.775E-13 0.411E+04   0.285E-06 -.146E-08 -.410E+04   0.000E+00 0.000E+00 -.540E+01   -.353E-09 0.146E-10 -.642E-02
   0.176E-05 -.372E-04 0.411E+04   0.285E-06 0.439E-06 -.410E+04   -.132E-22 -.547E-20 -.540E+01   -.354E-09 -.189E-08 -.642E-02
   0.176E-05 0.368E-04 0.411E+04   0.285E-06 -.360E-06 -.410E+04   0.132E-22 0.000E+00 -.540E+01   -.352E-09 0.188E-08 -.642E-02
   -.542E-06 0.117E-12 0.411E+04   -.295E-06 -.146E-08 -.410E+04   0.132E-22 0.000E+00 -.540E+01   0.141E-09 0.220E-10 -.642E-02
   -.542E-06 -.372E-04 0.411E+04   -.295E-06 0.439E-06 -.410E+04   -.331E-23 -.566E-20 -.540E+01   0.140E-09 -.189E-08 -.642E-02
   -.542E-06 0.368E-04 0.411E+04   -.295E-06 -.360E-06 -.410E+04   0.199E-22 0.000E+00 -.540E+01   0.140E-09 0.188E-08 -.642E-02
   0.806E-06 0.468E-04 0.292E+04   0.198E-07 0.104E-06 -.292E+04   0.116E-22 0.000E+00 -.167E+00   0.307E-10 -.157E-08 0.190E-01
   0.806E-06 -.188E-06 0.292E+04   0.198E-07 0.308E-06 -.292E+04   0.331E-22 0.000E+00 -.167E+00   0.309E-10 -.292E-10 0.190E-01
   0.806E-06 -.510E-04 0.292E+04   0.198E-07 -.572E-06 -.292E+04   -.132E-22 -.126E-19 -.167E+00   0.310E-10 0.162E-08 0.190E-01
   0.242E-05 0.468E-04 0.292E+04   0.585E-06 0.104E-06 -.292E+04   0.116E-22 0.000E+00 -.167E+00   -.116E-09 -.157E-08 0.190E-01
   0.242E-05 -.188E-06 0.292E+04   0.585E-06 0.308E-06 -.292E+04   0.662E-23 0.000E+00 -.167E+00   -.116E-09 -.253E-10 0.190E-01
   0.242E-05 -.510E-04 0.292E+04   0.585E-06 -.572E-06 -.292E+04   -.248E-22 -.378E-20 -.167E+00   -.118E-09 0.161E-08 0.190E-01
   0.310E-06 0.468E-04 0.292E+04   -.192E-06 0.104E-06 -.292E+04   0.331E-23 0.000E+00 -.167E+00   0.204E-09 -.157E-08 0.190E-01
   0.310E-06 -.188E-06 0.292E+04   -.192E-06 0.308E-06 -.292E+04   -.331E-22 0.000E+00 -.167E+00   0.204E-09 -.292E-10 0.190E-01
   0.310E-06 -.510E-04 0.292E+04   -.192E-06 -.572E-06 -.292E+04   0.298E-22 -.950E-20 -.167E+00   0.206E-09 0.162E-08 0.190E-01
   -.323E-13 0.435E-13 0.146E+04   -.305E-06 -.103E-07 -.145E+04   0.132E-22 0.000E+00 -.496E+00   0.132E-09 0.492E-11 -.983E-01
   -.268E-13 -.382E-04 0.146E+04   -.305E-06 0.596E-06 -.145E+04   -.794E-22 -.122E-21 -.496E+00   0.129E-09 0.326E-08 -.983E-01
   -.232E-13 0.378E-04 0.146E+04   -.305E-06 -.423E-06 -.145E+04   0.132E-22 0.000E+00 -.496E+00   0.127E-09 -.324E-08 -.983E-01
   0.163E-05 0.521E-13 0.146E+04   0.378E-06 -.103E-07 -.145E+04   -.529E-22 0.000E+00 -.496E+00   -.390E-09 0.498E-11 -.983E-01
   0.163E-05 -.382E-04 0.146E+04   0.378E-06 0.596E-06 -.145E+04   -.463E-22 -.332E-20 -.496E+00   -.390E-09 0.325E-08 -.983E-01
   0.163E-05 0.378E-04 0.146E+04   0.378E-06 -.423E-06 -.145E+04   0.132E-22 0.000E+00 -.496E+00   -.388E-09 -.324E-08 -.983E-01
   -.502E-06 0.660E-13 0.146E+04   -.491E-06 -.103E-07 -.145E+04   0.132E-21 0.000E+00 -.496E+00   0.142E-09 0.427E-11 -.983E-01
   -.502E-06 -.382E-04 0.146E+04   -.491E-06 0.596E-06 -.145E+04   0.265E-22 0.106E-20 -.496E+00   0.145E-09 0.326E-08 -.983E-01
   -.502E-06 0.378E-04 0.146E+04   -.491E-06 -.423E-06 -.145E+04   -.794E-22 0.000E+00 -.496E+00   0.145E-09 -.324E-08 -.983E-01
   0.813E-06 0.462E-04 -.647E+01   0.157E-07 0.120E-06 0.648E+01   0.331E-22 0.000E+00 -.587E-01   0.667E-10 0.404E-09 0.439E-01
   0.813E-06 -.189E-06 -.647E+01   0.157E-07 0.351E-06 0.648E+01   -.463E-22 0.000E+00 -.587E-01   0.667E-10 0.501E-10 0.439E-01
   0.813E-06 -.503E-04 -.647E+01   0.157E-07 -.636E-06 0.648E+01   -.331E-23 0.901E-20 -.587E-01   0.674E-10 -.483E-09 0.439E-01
   0.244E-05 0.462E-04 -.647E+01   0.648E-06 0.120E-06 0.648E+01   0.662E-23 0.000E+00 -.587E-01   0.104E-09 0.403E-09 0.439E-01
   0.244E-05 -.189E-06 -.647E+01   0.648E-06 0.351E-06 0.648E+01   0.199E-22 0.000E+00 -.587E-01   0.104E-09 0.531E-10 0.439E-01
   0.244E-05 -.503E-04 -.647E+01   0.648E-06 -.636E-06 0.648E+01   -.331E-22 -.133E-19 -.587E-01   0.105E-09 -.484E-09 0.439E-01
   0.313E-06 0.462E-04 -.647E+01   -.239E-06 0.120E-06 0.648E+01   0.232E-22 0.000E+00 -.587E-01   0.758E-11 0.408E-09 0.439E-01
   0.313E-06 -.189E-06 -.647E+01   -.239E-06 0.351E-06 0.648E+01   -.662E-23 0.000E+00 -.587E-01   0.778E-11 0.567E-10 0.439E-01
   0.313E-06 -.503E-04 -.647E+01   -.239E-06 -.636E-06 0.648E+01   0.993E-23 -.681E-20 -.587E-01   0.621E-11 -.487E-09 0.439E-01
   -.443E-13 0.481E-13 -.141E+04   -.303E-06 -.120E-07 0.141E+04   0.000E+00 0.000E+00 0.866E+00   -.137E-09 0.167E-10 -.181E+00
   -.275E-13 -.497E-04 -.141E+04   -.303E-06 0.597E-06 0.141E+04   0.529E-22 0.125E-19 0.866E+00   -.135E-09 0.145E-07 -.181E+00
   -.332E-13 0.494E-04 -.141E+04   -.303E-06 -.426E-06 0.141E+04   0.106E-21 0.000E+00 0.866E+00   -.136E-09 -.144E-07 -.181E+00
   0.164E-05 0.539E-13 -.141E+04   0.380E-06 -.120E-07 0.141E+04   -.265E-22 0.000E+00 0.866E+00   0.222E-09 0.140E-10 -.181E+00
   0.164E-05 -.497E-04 -.141E+04   0.380E-06 0.597E-06 0.141E+04   0.265E-22 0.183E-20 0.866E+00   0.221E-09 0.145E-07 -.181E+00
   0.164E-05 0.494E-04 -.141E+04   0.380E-06 -.426E-06 0.141E+04   0.159E-21 0.000E+00 0.866E+00   0.222E-09 -.144E-07 -.181E+00
   -.505E-06 0.571E-13 -.141E+04   -.486E-06 -.120E-07 0.141E+04   -.225E-21 0.000E+00 0.866E+00   -.297E-09 0.125E-10 -.181E+00
   -.505E-06 -.497E-04 -.141E+04   -.486E-06 0.597E-06 0.141E+04   0.212E-21 -.807E-20 0.866E+00   -.298E-09 0.145E-07 -.181E+00
   -.505E-06 0.494E-04 -.141E+04   -.486E-06 -.426E-06 0.141E+04   0.132E-22 0.000E+00 0.866E+00   -.298E-09 -.144E-07 -.181E+00
   0.800E-06 0.462E-04 -.295E+04   0.198E-07 0.101E-06 0.295E+04   -.331E-22 0.000E+00 -.715E+00   -.305E-09 0.456E-08 0.143E+00
   0.800E-06 -.188E-06 -.295E+04   0.198E-07 0.306E-06 0.295E+04   0.794E-22 0.000E+00 -.715E+00   -.304E-09 0.442E-10 0.143E+00
   0.800E-06 -.504E-04 -.295E+04   0.198E-07 -.575E-06 0.295E+04   0.132E-22 0.291E-20 -.715E+00   -.304E-09 -.449E-08 0.143E+00
   0.240E-05 0.462E-04 -.295E+04   0.597E-06 0.101E-06 0.295E+04   0.794E-22 0.000E+00 -.715E+00   -.154E-09 0.455E-08 0.143E+00
   0.240E-05 -.188E-06 -.295E+04   0.597E-06 0.306E-06 0.295E+04   0.265E-22 0.000E+00 -.715E+00   -.156E-09 0.454E-10 0.143E+00
   0.240E-05 -.504E-04 -.295E+04   0.597E-06 -.575E-06 0.295E+04   0.529E-22 -.814E-20 -.715E+00   -.155E-09 -.449E-08 0.143E+00
   0.307E-06 0.462E-04 -.295E+04   -.186E-06 0.101E-06 0.295E+04   -.132E-21 0.000E+00 -.715E+00   -.833E-10 0.455E-08 0.143E+00
   0.307E-06 -.188E-06 -.295E+04   -.186E-06 0.306E-06 0.295E+04   0.000E+00 0.000E+00 -.715E+00   -.831E-10 0.450E-10 0.143E+00
   0.307E-06 -.504E-04 -.295E+04   -.186E-06 -.575E-06 0.295E+04   -.132E-21 -.130E-19 -.715E+00   -.834E-10 -.448E-08 0.143E+00
   -.103E-13 0.817E-13 -.411E+04   -.204E-06 0.365E-08 0.411E+04   -.579E-23 0.000E+00 0.523E+01   -.900E-10 -.409E-10 0.229E+00
   -.270E-14 -.456E-04 -.411E+04   -.204E-06 0.455E-06 0.411E+04   0.000E+00 -.128E-19 0.523E+01   -.907E-10 0.778E-08 0.229E+00
   -.127E-13 0.452E-04 -.411E+04   -.204E-06 -.365E-06 0.411E+04   0.000E+00 0.000E+00 0.523E+01   -.908E-10 -.786E-08 0.229E+00
   0.174E-05 0.540E-13 -.411E+04   0.290E-06 0.365E-08 0.411E+04   0.000E+00 0.000E+00 0.523E+01   0.524E-09 -.412E-10 0.229E+00
   0.174E-05 -.456E-04 -.411E+04   0.290E-06 0.455E-06 0.411E+04   -.662E-23 0.424E-20 0.523E+01   0.526E-09 0.778E-08 0.229E+00
   0.174E-05 0.452E-04 -.411E+04   0.290E-06 -.365E-06 0.411E+04   -.662E-23 0.000E+00 0.523E+01   0.524E-09 -.786E-08 0.229E+00
   -.535E-06 0.886E-13 -.411E+04   -.324E-06 0.365E-08 0.411E+04   0.199E-22 0.000E+00 0.523E+01   -.268E-10 -.388E-10 0.229E+00
   -.535E-06 -.456E-04 -.411E+04   -.324E-06 0.455E-06 0.411E+04   -.744E-23 0.115E-19 0.523E+01   -.276E-10 0.778E-08 0.229E+00
   -.535E-06 0.452E-04 -.411E+04   -.324E-06 -.365E-06 0.411E+04   0.265E-22 0.000E+00 0.523E+01   -.260E-10 -.786E-08 0.229E+00
 -----------------------------------------------------------------------------------------------
   0.459E-04 -.435E-04 0.528E+01   0.273E-12 0.541E-13 0.136E-10   0.302E-21 -.608E-19 -.664E+01   -.640E-09 0.316E-09 0.134E+01
 
 
 POSITION                                       TOTAL-FORCE (eV/Angst)
 -----------------------------------------------------------------------------------
      0.00000      0.00000      0.00000         0.000000      0.000000      0.432982
      0.00000      2.56680      0.00000         0.000000      0.000000      0.432982
      0.00000      5.13360      0.00000         0.000000      0.000000      0.432982
      3.63000      0.00000      0.00000        -0.000000      0.000000      0.432982
      3.63000      2.56680      0.00000        -0.000000     -0.000000      0.432982
      3.63000      5.13360      0.00000         0.000000      0.000000      0.432982
      7.26000      0.00000      0.00000         0.000000      0.000000      0.432982
      7.26000      2.56680      0.00000        -0.000000      0.000000      0.432982
      7.26000      5.13360      0.00000         0.000000      0.000000      0.432982
      1.81500      1.28340      1.28340        -0.000000      0.000000     -0.444169
      1.81500      3.85020      1.28340        -0.000000      0.000000     -0.444169
      1.81500      6.41699      1.28340        -0.000000     -0.000000     -0.444169
      5.44500      1.28340      1.28340        -0.000000      0.000000     -0.444169
      5.44500      3.85020      1.28340         0.000000      0.000000     -0.444169
      5.44500      6.41699      1.28340        -0.000000     -0.000000     -0.444169
      9.07500      1.28340      1.28340         0.000000      0.000000     -0.444169
      9.07500      3.85020      1.28340         0.000000      0.000000     -0.444169
      9.07500      6.41699      1.28340         0.000000      0.000000     -0.444169
     -0.00000      0.00000      2.52148         0.000000      0.000000     -0.007626
     -0.00000      2.56680      2.52148        -0.000000      0.000000     -0.007626
      0.00000      5.13360      2.52148         0.000000      0.000000     -0.007626
      3.63000      0.00000      2.52148         0.000000      0.000000     -0.007626
      3.63000      2.56680      2.52148        -0.000000     -0.000000     -0.007626
      3.63000      5.13360      2.52148        -0.000000      0.000000     -0.007626
      7.26000      0.00000      2.52148        -0.000000      0.000000     -0.007626
      7.26000      2.56680      2.52148        -0.000000     -0.000000     -0.007626
      7.26000      5.13360      2.52148         0.000000      0.000000     -0.007626
      1.81500      1.28340      3.78174         0.000000      0.000000     -0.003825
      1.81500      3.85020      3.78174        -0.000000      0.000000     -0.003825
      1.81500      6.41699      3.78174         0.000000     -0.000000     -0.003825
      5.44500      1.28340      3.78174         0.000000      0.000000     -0.003825
      5.44500      3.85020      3.78174         0.000000      0.000000     -0.003825
      5.44500      6.41699      3.78174        -0.000000     -0.000000     -0.003825
      9.07500      1.28340      3.78174         0.000000      0.000000     -0.003825
      9.07500      3.85020      3.78174         0.000000      0.000000     -0.003825
      9.07500      6.41699      3.78174         0.000000      0.000000     -0.003825
     -0.00000      0.00000      5.00971         0.000000      0.000000      0.014426
      0.00000      2.56680      5.00971         0.000000     -0.000000      0.014426
     -0.00000      5.13360      5.00971         0.000000      0.000000      0.014426
      3.63000      0.00000      5.00971         0.000000      0.000000      0.014426
      3.63000      2.56680      5.00971         0.000000      0.000000      0.014426
      3.63000      5.13360      5.00971        -0.000000      0.000000      0.014426
      7.26000      0.00000      5.00971        -0.000000      0.000000      0.014426
      7.26000      2.56680      5.00971        -0.000000      0.000000      0.014426
      7.26000      5.13360      5.00971         0.000000      0.000000      0.014426
      1.81500      1.28340      6.31683        -0.000000      0.000000      0.005571
      1.81500      3.85020      6.31683         0.000000      0.000000      0.005571
      1.81500      6.41699      6.31683        -0.000000      0.000000      0.005571
      5.44500      1.28340      6.31683         0.000000      0.000000      0.005571
      5.44500      3.85020      6.31683         0.000000      0.000000      0.005571
      5.44500      6.41699      6.31683        -0.000000     -0.000000      0.005571
      9.07500      1.28340      6.31683         0.000000      0.000000      0.005571
      9.07500      3.85020      6.31683         0.000000      0.000000      0.005571
      9.07500      6.41699      6.31683        -0.000000     -0.000000      0.005571
     -0.00000      0.00000      7.46473         0.000000      0.000000      0.002641
      0.00000      2.56680      7.46473         0.000000      0.000000      0.002641
     -0.00000      5.13360      7.46473        -0.000000      0.000000      0.002641
      3.63000      0.00000      7.46473        -0.000000      0.000000      0.002641
      3.63000      2.56680      7.46473        -0.000000      0.000000      0.002641
      3.63000      5.13360      7.46473        -0.000000      0.000000      0.002641
      7.26000      0.00000      7.46473         0.000000      0.000000      0.002641
      7.26000      2.56680      7.46473         0.000000     -0.000000      0.002641
      7.26000      5.13360      7.46473         0.000000      0.000000      0.002641
 -----------------------------------------------------------------------------------
    total drift:                                0.000046     -0.000044     -0.019768


--------------------------------------------------------------------------------------------------------



  FREE ENERGIE OF THE ION-ELECTRON SYSTEM (eV)
  ---------------------------------------------------
  free  energy   TOTEN  =      -241.46177207 eV

  energy  without entropy=     -241.43830285  energy(sigma->0) =     -241.45394900
 
 d Force = 0.1659782E-02[-0.209E-03, 0.353E-02]  d Energy = 0.2093086E-02-0.433E-03
 d Force = 0.1839840E+03[ 0.184E+03, 0.184E+03]  d Ewald  = 0.1839840E+03 0.723E-05


--------------------------------------------------------------------------------------------------------


    POTLOK:  cpu time      0.1578: real time      0.1588


--------------------------------------------------------------------------------------------------------


 stress matrix after NEB project (eV)
    -32.44201      0.00000      0.00000
      0.00000    -41.21356      0.00000
      0.00000      0.00000     -7.26309
  FORCES: max atom, RMS     0.014426    0.006750
  FORCE total and by dimension    0.053573    0.014426
  Stress total and by dimension   52.950867   41.213561
 Conjugate gradient step on ions:
 trial-energy change:   -0.002093  1 .order   -0.001660   -0.003529    0.000209
  (g-gl).g = 0.277E-03      g.g   = 0.147E-02  gl.gl    = 0.193E-01
 g(Force)  = 0.147E-02   g(Stress)= 0.000E+00 ortho     = 0.267E-03
 gamma     =   0.01432
 trial     =   2.38663
 opt step  =   2.25298  (harmonic =   2.25298) maximal distance =0.00404359
 next E    =  -241.461345   (d E  =  -0.00167)


--------------------------------------------------------------------------------------------------------


  
 reached required accuracy - stopping structural energy minimisation
     LOOP+:  cpu time    412.7388: real time    416.5712
    4ORBIT:  cpu time      0.0000: real time      0.0000

 total amount of memory used by VASP MPI-rank0   160822. kBytes
=======================================================================

   base      :      30000. kBytes
   nonl-proj :      10967. kBytes
   fftplans  :       5055. kBytes
   grid      :      11751. kBytes
   one-center:        404. kBytes
   wavefun   :     102645. kBytes
 
  
  
 General timing and accounting informations for this job:
 ========================================================
  
                  Total CPU time used (sec):    10589.266
                            User time (sec):    10457.509
                          System time (sec):      131.757
                         Elapsed time (sec):    10691.561
  
                   Maximum memory used (kb):      420356.
                   Average memory used (kb):          N/A
  
                          Minor page faults:      6532120
                          Major page faults:         5838
                 Voluntary context switches:       110741
