<?xml version="1.0" encoding="ISO-8859-1"?>
<modeling>
 <generator>
  <i name="program" type="string">vasp </i>
  <i name="version" type="string">6.3.2  </i>
  <i name="subversion" type="string">27Jun22 (build Aug 17 2022 15:43:34) complex                          parallel </i>
  <i name="platform" type="string">tv2STDVTST </i>
  <i name="date" type="string">2025 02 03 </i>
  <i name="time" type="string">10:47:12 </i>
 </generator>
 <incar>
  <i type="int" name="ISTART">     0</i>
  <i type="string" name="PREC">Normal</i>
  <i type="int" name="ISPIN">     2</i>
  <i type="int" name="ICHARG">     2</i>
  <i type="int" name="IBRION">     2</i>
  <i name="EDIFF">      0.00020000</i>
  <i name="EDIFFG">     -0.03000000</i>
  <i type="int" name="NSW">   800</i>
  <i type="int" name="ISIF">     2</i>
  <i type="int" name="ISYM">     1</i>
  <i name="ENCUT">    400.00000000</i>
  <i name="POTIM">      0.50000000</i>
  <i type="logical" name="LREAL"> F  </i>
  <i type="int" name="ISMEAR">     1</i>
  <i name="SIGMA">      0.20000000</i>
  <i type="logical" name="LWAVE"> F  </i>
  <i type="logical" name="LCHARG"> F  </i>
  <i type="string" name="GGA">PE</i>
  <i type="int" name="IDIPOL">     3</i>
  <i type="int" name="IVDW">    11</i>
 </incar>
 <primitive_cell>
  <structure name="primitive_cell" >
   <crystal>
    <varray name="basis" >
     <v>       0.00000000      -2.56679773       0.00000000 </v>
     <v>       3.63000011       0.00000000       0.00000000 </v>
     <v>       0.00000000       0.00000000      22.70039300 </v>
    </varray>
    <i name="volume">    211.51036841 </i>
    <varray name="rec_basis" >
     <v>       0.00000000      -0.38959050       0.00000000 </v>
     <v>       0.27548209       0.00000000       0.00000000 </v>
     <v>       0.00000000       0.00000000       0.04405210 </v>
    </varray>
   </crystal>
   <varray name="positions" >
    <v>       0.00000000       0.00000000       0.00000000 </v>
    <v>       0.50000000       0.50000000       0.05653641 </v>
    <v>       0.00000000       0.00000000       0.11307283 </v>
    <v>       0.50000000       0.50000000       0.16960924 </v>
    <v>       0.00000000       0.00000000       0.22614566 </v>
    <v>       0.50000000       0.50000000       0.28268207 </v>
    <v>       0.00000000       0.00000000       0.33921849 </v>
   </varray>
  </structure>
  <varray name="primitive_index" >
   <v type="int" >        1 </v>
   <v type="int" >       12 </v>
   <v type="int" >       19 </v>
   <v type="int" >       30 </v>
   <v type="int" >       37 </v>
   <v type="int" >       48 </v>
   <v type="int" >       55 </v>
  </varray>
 </primitive_cell>
 <kpoints>
  <generation param="Monkhorst-Pack">
   <v type="int" name="divisions">       3        3        1 </v>
   <v name="usershift">      0.00000000       0.00000000       0.00000000 </v>
   <v name="genvec1">      0.33333333       0.00000000       0.00000000 </v>
   <v name="genvec2">      0.00000000       0.33333333       0.00000000 </v>
   <v name="genvec3">      0.00000000       0.00000000       1.00000000 </v>
   <v name="shift">      0.00000000       0.00000000       0.00000000 </v>
  </generation>
  <varray name="kpointlist" >
   <v>       0.00000000       0.00000000       0.00000000 </v>
   <v>       0.33333333       0.00000000       0.00000000 </v>
   <v>       0.00000000       0.33333333       0.00000000 </v>
   <v>       0.33333333       0.33333333       0.00000000 </v>
  </varray>
  <varray name="weights" >
   <v>       0.11111111 </v>
   <v>       0.22222222 </v>
   <v>       0.22222222 </v>
   <v>       0.44444444 </v>
  </varray>
 </kpoints>
 <parameters>
  <separator name="general" >
   <i type="string" name="SYSTEM">unknown system</i>
   <i type="logical" name="LCOMPAT"> F  </i>
  </separator>
  <separator name="electronic" >
   <i type="string" name="PREC">normal</i>
   <i name="ENMAX">    400.00000000</i>
   <i name="ENAUG">    586.98000000</i>
   <i name="EDIFF">      0.00020000</i>
   <i type="int" name="IALGO">    38</i>
   <i type="int" name="IWAVPR">    11</i>
   <i type="int" name="NBANDS">   448</i>
   <i type="int" name="NBANDSLOW">    -1</i>
   <i type="int" name="NBANDSHIGH">    -1</i>
   <i name="NELECT">    693.00000000</i>
   <i type="int" name="TURBO">     0</i>
   <i type="int" name="IRESTART">     0</i>
   <i type="int" name="NREBOOT">     0</i>
   <i type="int" name="NMIN">     0</i>
   <i name="EREF">      0.00000000</i>
   <separator name="electronic smearing" >
    <i type="int" name="ISMEAR">     1</i>
    <i name="SIGMA">      0.20000000</i>
    <i name="KSPACING">      0.50000000</i>
    <i type="logical" name="KGAMMA"> T  </i>
    <i type="logical" name="KBLOWUP"> T  </i>
   </separator>
   <separator name="electronic projectors" >
    <i type="logical" name="LREAL"> F  </i>
    <v name="ROPT">      0.00000000</v>
    <i type="int" name="LMAXPAW">  -100</i>
    <i type="int" name="LMAXMIX">     2</i>
    <i type="logical" name="NLSPLINE"> F  </i>
   </separator>
   <separator name="electronic startup" >
    <i type="int" name="ISTART">     0</i>
    <i type="int" name="ICHARG">     2</i>
    <i type="int" name="INIWAV">     1</i>
   </separator>
   <separator name="electronic spin" >
    <i type="int" name="ISPIN">     2</i>
    <i type="logical" name="LNONCOLLINEAR"> F  </i>
    <v name="MAGMOM">      1.00000000      1.00000000      1.00000000      1.00000000      1.00000000      1.00000000      1.00000000      1.00000000      1.00000000      1.00000000      1.00000000      1.00000000      1.00000000      1.00000000      1.00000000      1.00000000      1.00000000      1.00000000      1.00000000      1.00000000
      1.00000000      1.00000000      1.00000000      1.00000000      1.00000000      1.00000000      1.00000000      1.00000000      1.00000000      1.00000000      1.00000000      1.00000000      1.00000000      1.00000000      1.00000000      1.00000000      1.00000000      1.00000000      1.00000000      1.00000000
      1.00000000      1.00000000      1.00000000      1.00000000      1.00000000      1.00000000      1.00000000      1.00000000      1.00000000      1.00000000      1.00000000      1.00000000      1.00000000      1.00000000      1.00000000      1.00000000      1.00000000      1.00000000      1.00000000      1.00000000
      1.00000000      1.00000000      1.00000000</v>
    <i name="NUPDOWN">     -1.00000000</i>
    <i type="logical" name="LSORBIT"> F  </i>
    <v name="SAXIS">      0.00000000      0.00000000      1.00000000</v>
    <i type="logical" name="LSPIRAL"> F  </i>
    <v name="QSPIRAL">      0.00000000      0.00000000      0.00000000</v>
    <i type="logical" name="LZEROZ"> F  </i>
   </separator>
   <separator name="electronic exchange-correlation" >
    <i type="logical" name="LASPH"> F  </i>
    <i type="logical" name="LMETAGGA"> F  </i>
   </separator>
   <separator name="electronic convergence" >
    <i type="int" name="NELM">    60</i>
    <i type="int" name="NELMDL">    -5</i>
    <i type="int" name="NELMIN">     2</i>
    <i name="ENINI">    400.00000000</i>
    <separator name="electronic convergence detail" >
     <i type="logical" name="LDIAG"> T  </i>
     <i type="logical" name="LSUBROT"> F  </i>
     <i name="WEIMIN">      0.00100000</i>
     <i name="EBREAK">      0.00000011</i>
     <i name="DEPER">      0.30000000</i>
     <i type="int" name="NRMM">     4</i>
     <i name="TIME">      0.40000000</i>
    </separator>
   </separator>
   <separator name="electronic mixer" >
    <i name="AMIX">      0.40000000</i>
    <i name="BMIX">      1.00000000</i>
    <i name="AMIN">      0.10000000</i>
    <i name="AMIX_MAG">      1.60000000</i>
    <i name="BMIX_MAG">      1.00000000</i>
    <separator name="electronic mixer details" >
     <i type="int" name="IMIX">     4</i>
     <i type="logical" name="MIXFIRST"> F  </i>
     <i type="int" name="MAXMIX">   -45</i>
     <i name="WC">    100.00000000</i>
     <i type="int" name="INIMIX">     1</i>
     <i type="int" name="MIXPRE">     1</i>
     <i type="int" name="MREMOVE">     5</i>
    </separator>
   </separator>
   <separator name="electronic dipolcorrection" >
    <i type="logical" name="LDIPOL"> F  </i>
    <i type="logical" name="LMONO"> F  </i>
    <i type="int" name="IDIPOL">     3</i>
    <i name="EPSILON">      1.00000000</i>
    <v name="DIPOL">   -100.00000000   -100.00000000   -100.00000000</v>
    <i name="EFIELD">      0.00000000</i>
   </separator>
  </separator>
  <separator name="grids" >
   <i type="int" name="NGX">    54</i>
   <i type="int" name="NGY">    40</i>
   <i type="int" name="NGZ">   112</i>
   <i type="int" name="NGXF">   108</i>
   <i type="int" name="NGYF">    80</i>
   <i type="int" name="NGZF">   224</i>
   <i type="logical" name="ADDGRID"> F  </i>
  </separator>
  <separator name="ionic" >
   <i type="int" name="NSW">   800</i>
   <i type="int" name="IBRION">     2</i>
   <i type="int" name="MDALGO">     0</i>
   <i type="int" name="ISIF">     2</i>
   <i name="PSTRESS">      0.00000000</i>
   <i name="EDIFFG">     -0.03000000</i>
   <i type="int" name="NFREE">     1</i>
   <i name="POTIM">      0.50000000</i>
   <i name="SMASS">     -3.00000000</i>
   <i name="SCALEE">      1.00000000</i>
  </separator>
  <separator name="ionic md" >
   <i name="TEBEG">      0.00010000</i>
   <i name="TEEND">      0.00010000</i>
   <i type="int" name="NBLOCK">     1</i>
   <i type="int" name="KBLOCK">   800</i>
   <i type="int" name="NPACO">   256</i>
   <i name="APACO">     10.00000000</i>
  </separator>
  <separator name="symmetry" >
   <i type="int" name="ISYM">     1</i>
   <i name="SYMPREC">      0.00001000</i>
  </separator>
  <separator name="dos" >
   <i type="int" name="LORBIT">     0</i>
   <v name="RWIGS">     -1.00000000</v>
   <i type="int" name="NEDOS">   301</i>
   <i name="EMIN">     10.00000000</i>
   <i name="EMAX">    -10.00000000</i>
   <i name="EFERMI">      0.00000000</i>
  </separator>
  <separator name="writing" >
   <i type="int" name="NWRITE">     2</i>
   <i type="logical" name="LWAVE"> F  </i>
   <i type="logical" name="LDOWNSAMPLE"> F  </i>
   <i type="logical" name="LCHARG"> F  </i>
   <i type="logical" name="LPARD"> F  </i>
   <i type="logical" name="LVTOT"> F  </i>
   <i type="logical" name="LVHAR"> F  </i>
   <i type="logical" name="LELF"> F  </i>
   <i type="logical" name="LOPTICS"> F  </i>
   <v name="STM">      0.00000000      0.00000000      0.00000000      0.00000000      0.00000000      0.00000000      0.00000000</v>
  </separator>
  <separator name="performance" >
   <i type="int" name="NPAR">     4</i>
   <i type="int" name="NSIM">     4</i>
   <i type="int" name="NBLK">    -1</i>
   <i type="logical" name="LPLANE"> T  </i>
   <i type="logical" name="LSCALAPACK"> T  </i>
   <i type="logical" name="LSCAAWARE"> F  </i>
   <i type="logical" name="LSCALU"> F  </i>
   <i type="logical" name="LASYNC"> F  </i>
   <i type="logical" name="LORBITALREAL"> F  </i>
  </separator>
  <separator name="miscellaneous" >
   <i type="int" name="IDIOT">     3</i>
   <i type="int" name="PHON_NSTRUCT">    -1</i>
   <i type="logical" name="LMUSIC"> F  </i>
   <v name="POMASS">     63.54600000</v>
   <v name="DARWINR">      0.00000000</v>
   <v name="DARWINV">      1.00000000</v>
   <i type="logical" name="LCORR"> T  </i>
  </separator>
  <i type="logical" name="GGA_COMPAT"> T  </i>
  <i type="logical" name="LBERRY"> F  </i>
  <i type="int" name="ICORELEVEL">     0</i>
  <i type="logical" name="LDAU"> F  </i>
  <i type="int" name="I_CONSTRAINED_M">     0</i>
  <separator name="electronic exchange-correlation" >
   <i type="string" name="GGA">PE</i>
   <i type="int" name="VOSKOWN">     0</i>
   <i type="logical" name="LHFCALC"> F  </i>
   <i type="string" name="PRECFOCK"></i>
   <i type="logical" name="LSYMGRAD"> F  </i>
   <i type="logical" name="LHFONE"> F  </i>
   <i type="logical" name="LRHFCALC"> F  </i>
   <i type="logical" name="LTHOMAS"> F  </i>
   <i type="logical" name="LMODELHF"> F  </i>
   <i type="logical" name="LFOCKACE"> F  </i>
   <i name="ENCUT4O">     -1.00000000</i>
   <i type="int" name="EXXOEP">     0</i>
   <i type="int" name="FOURORBIT">     0</i>
   <i name="AEXX">      0.00000000</i>
   <i name="HFALPHA">      0.00000000</i>
   <i name="MCALPHA">      0.00000000</i>
   <i name="ALDAX">      1.00000000</i>
   <i name="AGGAX">      1.00000000</i>
   <i name="ALDAC">      1.00000000</i>
   <i name="AGGAC">      1.00000000</i>
   <i type="int" name="NKREDX">     1</i>
   <i type="int" name="NKREDY">     1</i>
   <i type="int" name="NKREDZ">     1</i>
   <i type="logical" name="SHIFTRED"> F  </i>
   <i type="logical" name="ODDONLY"> F  </i>
   <i type="logical" name="EVENONLY"> F  </i>
   <i type="int" name="LMAXFOCK">     0</i>
   <i type="int" name="NMAXFOCKAE">     0</i>
   <i type="logical" name="LFOCKAEDFT"> F  </i>
   <i name="HFSCREEN">      0.00000000</i>
   <i name="HFSCREENC">      0.00000000</i>
   <i type="int" name="NBANDSGWLOW">     0</i>
  </separator>
  <separator name="vdW DFT" >
   <i type="logical" name="LUSE_VDW"> F  </i>
   <i name="Zab_VDW">     -0.84910000</i>
   <i name="PARAM1">      0.12340000</i>
   <i name="PARAM2">      1.00000000</i>
   <i name="PARAM3">      0.00000000</i>
  </separator>
  <separator name="model GW" >
   <i type="int" name="MODEL_GW">     0</i>
   <i name="MODEL_EPS0">     18.12946015</i>
   <i name="MODEL_ALPHA">      1.00000000</i>
  </separator>
  <separator name="linear response parameters" >
   <i type="logical" name="LEPSILON"> F  </i>
   <i type="logical" name="LRPA"> F  </i>
   <i type="logical" name="LNABLA"> F  </i>
   <i type="logical" name="LVEL"> F  </i>
   <i name="CSHIFT">      0.10000000</i>
   <i name="OMEGAMAX">     -1.00000000</i>
   <i name="DEG_THRESHOLD">      0.00200000</i>
   <i name="RTIME">     -0.10000000</i>
   <i name="WPLASMAI">      0.00000000</i>
   <v name="DFIELD">      0.00000000      0.00000000      0.00000000</v>
   <v name="WPLASMA">      0.00000000      0.00000000      0.00000000      0.00000000      0.00000000      0.00000000      0.00000000      0.00000000      0.00000000</v>
  </separator>
  <separator name="orbital magnetization" >
   <i type="logical" name="NUCIND"> F  </i>
   <v name="MAGPOS">      0.00000000      0.00000000      0.00000000</v>
   <i type="logical" name="LNICSALL"> T  </i>
   <i type="logical" name="ORBITALMAG"> F  </i>
   <i type="logical" name="LMAGBLOCH"> F  </i>
   <i type="logical" name="LCHIMAG"> F  </i>
   <i type="logical" name="LGAUGE"> T  </i>
   <i type="int" name="MAGATOM">     0</i>
   <v name="MAGDIPOL">      0.00000000      0.00000000      0.00000000</v>
   <v name="AVECCONST">      0.00000000      0.00000000      0.00000000</v>
  </separator>
  <separator name="response functions" >
   <i type="logical" name="LFINITE_TEMPERATURE"> F  </i>
   <i type="logical" name="LADDER"> F  </i>
   <i type="logical" name="LRPAFORCE"> F  </i>
   <i type="logical" name="LFXC"> F  </i>
   <i type="logical" name="LHARTREE"> T  </i>
   <i type="int" name="IBSE">     0</i>
   <v type="int" name="KPOINT">    -1     0     0     0</v>
   <i type="logical" name="LTCTC"> F  </i>
   <i type="logical" name="LTCTE"> F  </i>
   <i type="logical" name="LTETE"> F  </i>
   <i type="logical" name="LTRIPLET"> F  </i>
   <i type="logical" name="LFXCEPS"> F  </i>
   <i type="logical" name="LFXHEG"> F  </i>
   <i type="int" name="NATURALO">     2</i>
   <i type="logical" name="LHOLEGF"> F  </i>
   <i type="logical" name="L2ORDER"> F  </i>
   <i type="logical" name="LDMP1"> F  </i>
   <i type="logical" name="LMP2LT"> F  </i>
   <i type="logical" name="LSMP2LT"> F  </i>
   <i type="logical" name="LGWLF"> F  </i>
   <i name="ENCUTGW">     -2.00000000</i>
   <i name="ENCUTGWSOFT">     -2.00000000</i>
   <i name="ENCUTLF">     -1.00000000</i>
   <i type="logical" name="LESF_SPLINES"> F  </i>
   <i type="int" name="LMAXMP2">    -1</i>
   <i name="SCISSOR">      0.00000000</i>
   <i type="int" name="NOMEGA">     0</i>
   <i type="int" name="NOMEGAR">     0</i>
   <i type="int" name="NBANDSGW">    -1</i>
   <i type="int" name="NBANDSO">    -1</i>
   <i type="int" name="NBANDSV">    -1</i>
   <i type="int" name="NELMGW">     1</i>
   <i type="int" name="NELMHF">     1</i>
   <i type="int" name="DIM">     3</i>
   <i type="int" name="IESPILON">     4</i>
   <i type="int" name="ANTIRES">     0</i>
   <i name="OMEGAMAX">    -30.00000000</i>
   <i name="OMEGAMIN">    -30.00000000</i>
   <i name="OMEGATL">   -200.00000000</i>
   <i type="int" name="OMEGAGRID">     0</i>
   <i name="CSHIFT">     -0.10000000</i>
   <i type="logical" name="LSELFENERGY"> F  </i>
   <i type="logical" name="LSPECTRAL"> F  </i>
   <i type="logical" name="LSPECTRALGW"> F  </i>
   <i type="logical" name="LSINGLES"> F  </i>
   <i type="logical" name="LFERMIGW"> F  </i>
   <i type="logical" name="ODDONLYGW"> F  </i>
   <i type="logical" name="EVENONLYGW"> F  </i>
   <i type="int" name="NKREDLFX">     1</i>
   <i type="int" name="NKREDLFY">     1</i>
   <i type="int" name="NKREDLFZ">     1</i>
   <i type="int" name="MAXMEM">  2800</i>
   <i type="int" name="TELESCOPE">     0</i>
   <i type="int" name="NTAUPAR">    -1</i>
   <i type="int" name="NOMEGAPAR">    -1</i>
   <i name="DAMP_NEWTON">      0.80000001</i>
   <i name="LAMBDA">      1.00000000</i>
  </separator>
  <separator name="External order field" >
   <i name="OFIELD_KAPPA">      0.00000000</i>
   <v name="OFIELD_K">      0.00000000      0.00000000      0.00000000</v>
   <i name="OFIELD_Q6_NEAR">      0.00000000</i>
   <i name="OFIELD_Q6_FAR">      0.00000000</i>
   <i name="OFIELD_A">      0.00000000</i>
  </separator>
  <separator name="optional k-points parameters" >
   <i type="int" name="KPOINTS_OPT_MODE">     1</i>
   <i type="logical" name="LKPOINTS_OPT"> F  </i>
  </separator>
 </parameters>
 <atominfo>
  <atoms>      63 </atoms>
  <types>       1 </types>
  <array name="atoms" >
   <dimension dim="1">ion</dimension>
   <field type="string">element</field>
   <field type="int">atomtype</field>
   <set>
    <rc><c>Cu</c><c>   1</c></rc>
    <rc><c>Cu</c><c>   1</c></rc>
    <rc><c>Cu</c><c>   1</c></rc>
    <rc><c>Cu</c><c>   1</c></rc>
    <rc><c>Cu</c><c>   1</c></rc>
    <rc><c>Cu</c><c>   1</c></rc>
    <rc><c>Cu</c><c>   1</c></rc>
    <rc><c>Cu</c><c>   1</c></rc>
    <rc><c>Cu</c><c>   1</c></rc>
    <rc><c>Cu</c><c>   1</c></rc>
    <rc><c>Cu</c><c>   1</c></rc>
    <rc><c>Cu</c><c>   1</c></rc>
    <rc><c>Cu</c><c>   1</c></rc>
    <rc><c>Cu</c><c>   1</c></rc>
    <rc><c>Cu</c><c>   1</c></rc>
    <rc><c>Cu</c><c>   1</c></rc>
    <rc><c>Cu</c><c>   1</c></rc>
    <rc><c>Cu</c><c>   1</c></rc>
    <rc><c>Cu</c><c>   1</c></rc>
    <rc><c>Cu</c><c>   1</c></rc>
    <rc><c>Cu</c><c>   1</c></rc>
    <rc><c>Cu</c><c>   1</c></rc>
    <rc><c>Cu</c><c>   1</c></rc>
    <rc><c>Cu</c><c>   1</c></rc>
    <rc><c>Cu</c><c>   1</c></rc>
    <rc><c>Cu</c><c>   1</c></rc>
    <rc><c>Cu</c><c>   1</c></rc>
    <rc><c>Cu</c><c>   1</c></rc>
    <rc><c>Cu</c><c>   1</c></rc>
    <rc><c>Cu</c><c>   1</c></rc>
    <rc><c>Cu</c><c>   1</c></rc>
    <rc><c>Cu</c><c>   1</c></rc>
    <rc><c>Cu</c><c>   1</c></rc>
    <rc><c>Cu</c><c>   1</c></rc>
    <rc><c>Cu</c><c>   1</c></rc>
    <rc><c>Cu</c><c>   1</c></rc>
    <rc><c>Cu</c><c>   1</c></rc>
    <rc><c>Cu</c><c>   1</c></rc>
    <rc><c>Cu</c><c>   1</c></rc>
    <rc><c>Cu</c><c>   1</c></rc>
    <rc><c>Cu</c><c>   1</c></rc>
    <rc><c>Cu</c><c>   1</c></rc>
    <rc><c>Cu</c><c>   1</c></rc>
    <rc><c>Cu</c><c>   1</c></rc>
    <rc><c>Cu</c><c>   1</c></rc>
    <rc><c>Cu</c><c>   1</c></rc>
    <rc><c>Cu</c><c>   1</c></rc>
    <rc><c>Cu</c><c>   1</c></rc>
    <rc><c>Cu</c><c>   1</c></rc>
    <rc><c>Cu</c><c>   1</c></rc>
    <rc><c>Cu</c><c>   1</c></rc>
    <rc><c>Cu</c><c>   1</c></rc>
    <rc><c>Cu</c><c>   1</c></rc>
    <rc><c>Cu</c><c>   1</c></rc>
    <rc><c>Cu</c><c>   1</c></rc>
    <rc><c>Cu</c><c>   1</c></rc>
    <rc><c>Cu</c><c>   1</c></rc>
    <rc><c>Cu</c><c>   1</c></rc>
    <rc><c>Cu</c><c>   1</c></rc>
    <rc><c>Cu</c><c>   1</c></rc>
    <rc><c>Cu</c><c>   1</c></rc>
    <rc><c>Cu</c><c>   1</c></rc>
    <rc><c>Cu</c><c>   1</c></rc>
   </set>
  </array>
  <array name="atomtypes" >
   <dimension dim="1">type</dimension>
   <field type="int">atomspertype</field>
   <field type="string">element</field>
   <field>mass</field>
   <field>valence</field>
   <field type="string">pseudopotential</field>
   <set>
    <rc><c>  63</c><c>Cu</c><c>     63.54600000</c><c>     11.00000000</c><c>  PAW_PBE Cu 22Jun2005                  </c></rc>
   </set>
  </array>
 </atominfo>
 <structure name="initialpos" >
  <crystal>
   <varray name="basis" >
    <v>      10.89000034       0.00000000       0.00000000 </v>
    <v>       0.00000000       7.70039320       0.00000000 </v>
    <v>       0.00000000       0.00000000      22.70039300 </v>
   </varray>
   <i name="volume">   1903.59331612 </i>
   <varray name="rec_basis" >
    <v>       0.09182736       0.00000000       0.00000000 </v>
    <v>       0.00000000       0.12986350       0.00000000 </v>
    <v>       0.00000000       0.00000000       0.04405210 </v>
   </varray>
  </crystal>
  <varray name="positions" >
   <v>       0.00000000       0.00000000       0.00000000 </v>
   <v>       0.00000000       0.33333333       0.00000000 </v>
   <v>       0.00000000       0.66666667       0.00000000 </v>
   <v>       0.33333333       0.00000000       0.00000000 </v>
   <v>       0.33333333       0.33333333       0.00000000 </v>
   <v>       0.33333333       0.66666667       0.00000000 </v>
   <v>       0.66666667       0.00000000       0.00000000 </v>
   <v>       0.66666667       0.33333333       0.00000000 </v>
   <v>       0.66666667       0.66666667       0.00000000 </v>
   <v>       0.16666667       0.16666667       0.05653641 </v>
   <v>       0.16666667       0.50000000       0.05653641 </v>
   <v>       0.16666667       0.83333333       0.05653641 </v>
   <v>       0.50000000       0.16666667       0.05653641 </v>
   <v>       0.50000000       0.50000000       0.05653641 </v>
   <v>       0.50000000       0.83333333       0.05653641 </v>
   <v>       0.83333333       0.16666667       0.05653641 </v>
   <v>       0.83333333       0.50000000       0.05653641 </v>
   <v>       0.83333333       0.83333333       0.05653641 </v>
   <v>       0.00000000       0.00000000       0.11307283 </v>
   <v>       0.00000000       0.33333333       0.11307283 </v>
   <v>       0.00000000       0.66666667       0.11307283 </v>
   <v>       0.33333333       0.00000000       0.11307283 </v>
   <v>       0.33333333       0.33333333       0.11307283 </v>
   <v>       0.33333333       0.66666667       0.11307283 </v>
   <v>       0.66666667       0.00000000       0.11307283 </v>
   <v>       0.66666667       0.33333333       0.11307283 </v>
   <v>       0.66666667       0.66666667       0.11307283 </v>
   <v>       0.16666667       0.16666667       0.16960924 </v>
   <v>       0.16666667       0.50000000       0.16960924 </v>
   <v>       0.16666667       0.83333333       0.16960924 </v>
   <v>       0.50000000       0.16666667       0.16960924 </v>
   <v>       0.50000000       0.50000000       0.16960924 </v>
   <v>       0.50000000       0.83333333       0.16960924 </v>
   <v>       0.83333333       0.16666667       0.16960924 </v>
   <v>       0.83333333       0.50000000       0.16960924 </v>
   <v>       0.83333333       0.83333333       0.16960924 </v>
   <v>       0.00000000       0.00000000       0.22614566 </v>
   <v>       0.00000000       0.33333333       0.22614566 </v>
   <v>       0.00000000       0.66666667       0.22614566 </v>
   <v>       0.33333333       0.00000000       0.22614566 </v>
   <v>       0.33333333       0.33333333       0.22614566 </v>
   <v>       0.33333333       0.66666667       0.22614566 </v>
   <v>       0.66666667       0.00000000       0.22614566 </v>
   <v>       0.66666667       0.33333333       0.22614566 </v>
   <v>       0.66666667       0.66666667       0.22614566 </v>
   <v>       0.16666667       0.16666667       0.28268207 </v>
   <v>       0.16666667       0.50000000       0.28268207 </v>
   <v>       0.16666667       0.83333333       0.28268207 </v>
   <v>       0.50000000       0.16666667       0.28268207 </v>
   <v>       0.50000000       0.50000000       0.28268207 </v>
   <v>       0.50000000       0.83333333       0.28268207 </v>
   <v>       0.83333333       0.16666667       0.28268207 </v>
   <v>       0.83333333       0.50000000       0.28268207 </v>
   <v>       0.83333333       0.83333333       0.28268207 </v>
   <v>       0.00000000       0.00000000       0.33921849 </v>
   <v>       0.00000000       0.33333333       0.33921849 </v>
   <v>       0.00000000       0.66666667       0.33921849 </v>
   <v>       0.33333333       0.00000000       0.33921849 </v>
   <v>       0.33333333       0.33333333       0.33921849 </v>
   <v>       0.33333333       0.66666667       0.33921849 </v>
   <v>       0.66666667       0.00000000       0.33921849 </v>
   <v>       0.66666667       0.33333333       0.33921849 </v>
   <v>       0.66666667       0.66666667       0.33921849 </v>
  </varray>
  <varray name="selective"  type="logical" >
   <v type="logical" >  F  F  F </v>
   <v type="logical" >  F  F  F </v>
   <v type="logical" >  F  F  F </v>
   <v type="logical" >  F  F  F </v>
   <v type="logical" >  F  F  F </v>
   <v type="logical" >  F  F  F </v>
   <v type="logical" >  F  F  F </v>
   <v type="logical" >  F  F  F </v>
   <v type="logical" >  F  F  F </v>
   <v type="logical" >  F  F  F </v>
   <v type="logical" >  F  F  F </v>
   <v type="logical" >  F  F  F </v>
   <v type="logical" >  F  F  F </v>
   <v type="logical" >  F  F  F </v>
   <v type="logical" >  F  F  F </v>
   <v type="logical" >  F  F  F </v>
   <v type="logical" >  F  F  F </v>
   <v type="logical" >  F  F  F </v>
   <v type="logical" >  T  T  T </v>
   <v type="logical" >  T  T  T </v>
   <v type="logical" >  T  T  T </v>
   <v type="logical" >  T  T  T </v>
   <v type="logical" >  T  T  T </v>
   <v type="logical" >  T  T  T </v>
   <v type="logical" >  T  T  T </v>
   <v type="logical" >  T  T  T </v>
   <v type="logical" >  T  T  T </v>
   <v type="logical" >  T  T  T </v>
   <v type="logical" >  T  T  T </v>
   <v type="logical" >  T  T  T </v>
   <v type="logical" >  T  T  T </v>
   <v type="logical" >  T  T  T </v>
   <v type="logical" >  T  T  T </v>
   <v type="logical" >  T  T  T </v>
   <v type="logical" >  T  T  T </v>
   <v type="logical" >  T  T  T </v>
   <v type="logical" >  T  T  T </v>
   <v type="logical" >  T  T  T </v>
   <v type="logical" >  T  T  T </v>
   <v type="logical" >  T  T  T </v>
   <v type="logical" >  T  T  T </v>
   <v type="logical" >  T  T  T </v>
   <v type="logical" >  T  T  T </v>
   <v type="logical" >  T  T  T </v>
   <v type="logical" >  T  T  T </v>
   <v type="logical" >  T  T  T </v>
   <v type="logical" >  T  T  T </v>
   <v type="logical" >  T  T  T </v>
   <v type="logical" >  T  T  T </v>
   <v type="logical" >  T  T  T </v>
   <v type="logical" >  T  T  T </v>
   <v type="logical" >  T  T  T </v>
   <v type="logical" >  T  T  T </v>
   <v type="logical" >  T  T  T </v>
   <v type="logical" >  T  T  T </v>
   <v type="logical" >  T  T  T </v>
   <v type="logical" >  T  T  T </v>
   <v type="logical" >  T  T  T </v>
   <v type="logical" >  T  T  T </v>
   <v type="logical" >  T  T  T </v>
   <v type="logical" >  T  T  T </v>
   <v type="logical" >  T  T  T </v>
   <v type="logical" >  T  T  T </v>
  </varray>
  <nose>
   <v>      -3.00000000       0.00000000       0.00010000       0.00010000 </v>
  </nose>
 </structure>
 <calculation>
  <scstep>
   <time name="dav">   65.12   65.63</time>
   <time name="total">   65.29   65.83</time>
   <energy>
    <i name="alphaZ">   1524.82200598 </i>
    <i name="ewald"> 294420.48931247 </i>
    <i name="hartreedc">-378921.60185116 </i>
    <i name="XCdc">   2872.81064200 </i>
    <i name="pawpsdc">  77370.14225108 </i>
    <i name="pawaedc"> -84037.01868607 </i>
    <i name="eentropy">     -0.00206791 </i>
    <i name="bandstr">   5455.91044828 </i>
    <i name="atom">  87630.33133259 </i>
    <i name="e_fr_energy">   6315.88338726 </i>
    <i name="e_wo_entrp">   6315.88545517 </i>
    <i name="e_0_energy">   6315.88407657 </i>
   </energy>
  </scstep>
  <scstep>
   <time name="dav">   68.68   69.88</time>
   <time name="total">   68.68   69.88</time>
   <energy>
    <i name="e_fr_energy">    711.76538582 </i>
    <i name="e_wo_entrp">    711.74020729 </i>
    <i name="e_0_energy">    711.75699298 </i>
   </energy>
  </scstep>
  <scstep>
   <time name="dav">   64.00   64.42</time>
   <time name="total">   64.01   64.42</time>
   <energy>
    <i name="e_fr_energy">   -195.56142348 </i>
    <i name="e_wo_entrp">   -195.66776468 </i>
    <i name="e_0_energy">   -195.59687055 </i>
   </energy>
  </scstep>
  <scstep>
   <time name="dav">   70.10   70.56</time>
   <time name="total">   70.10   70.57</time>
   <energy>
    <i name="e_fr_energy">   -256.89217787 </i>
    <i name="e_wo_entrp">   -257.02032539 </i>
    <i name="e_0_energy">   -256.93489371 </i>
   </energy>
  </scstep>
  <scstep>
   <time name="dav">   71.25   71.72</time>
   <time name="total">   73.01   73.49</time>
   <energy>
    <i name="e_fr_energy">   -258.38690894 </i>
    <i name="e_wo_entrp">   -258.51648928 </i>
    <i name="e_0_energy">   -258.43010238 </i>
   </energy>
  </scstep>
  <scstep>
   <time name="dav">   71.83   73.46</time>
   <time name="total">   73.57   75.22</time>
   <energy>
    <i name="e_fr_energy">   -208.85020779 </i>
    <i name="e_wo_entrp">   -208.84659197 </i>
    <i name="e_0_energy">   -208.84900251 </i>
   </energy>
  </scstep>
  <scstep>
   <time name="dav">   68.16   68.64</time>
   <time name="total">   69.91   70.41</time>
   <energy>
    <i name="e_fr_energy">   -179.46738920 </i>
    <i name="e_wo_entrp">   -179.46077279 </i>
    <i name="e_0_energy">   -179.46518373 </i>
   </energy>
  </scstep>
  <scstep>
   <time name="dav">   71.44   71.90</time>
   <time name="total">   73.21   73.68</time>
   <energy>
    <i name="e_fr_energy">   -175.34172589 </i>
    <i name="e_wo_entrp">   -175.34546590 </i>
    <i name="e_0_energy">   -175.34297256 </i>
   </energy>
  </scstep>
  <scstep>
   <time name="dav">   83.04   83.67</time>
   <time name="total">   84.76   85.41</time>
   <energy>
    <i name="e_fr_energy">   -171.18384477 </i>
    <i name="e_wo_entrp">   -171.17606435 </i>
    <i name="e_0_energy">   -171.18125130 </i>
   </energy>
  </scstep>
  <scstep>
   <time name="dav">   86.81   87.92</time>
   <time name="total">   88.61   89.73</time>
   <energy>
    <i name="e_fr_energy">   -168.11636889 </i>
    <i name="e_wo_entrp">   -168.07505758 </i>
    <i name="e_0_energy">   -168.10259845 </i>
   </energy>
  </scstep>
  <scstep>
   <time name="dav">   70.02   70.49</time>
   <time name="total">   71.80   72.29</time>
   <energy>
    <i name="e_fr_energy">   -172.13148950 </i>
    <i name="e_wo_entrp">   -172.08438467 </i>
    <i name="e_0_energy">   -172.11578789 </i>
   </energy>
  </scstep>
  <scstep>
   <time name="dav">   74.46   74.96</time>
   <time name="total">   76.24   76.75</time>
   <energy>
    <i name="e_fr_energy">   -180.08815397 </i>
    <i name="e_wo_entrp">   -180.01385244 </i>
    <i name="e_0_energy">   -180.06338680 </i>
   </energy>
  </scstep>
  <scstep>
   <time name="dav">   79.50   80.11</time>
   <time name="total">   81.29   81.92</time>
   <energy>
    <i name="e_fr_energy">   -194.31188258 </i>
    <i name="e_wo_entrp">   -194.25725419 </i>
    <i name="e_0_energy">   -194.29367312 </i>
   </energy>
  </scstep>
  <scstep>
   <time name="dav">   84.38   85.40</time>
   <time name="total">   86.11   87.16</time>
   <energy>
    <i name="e_fr_energy">   -203.51469717 </i>
    <i name="e_wo_entrp">   -203.49081664 </i>
    <i name="e_0_energy">   -203.50673699 </i>
   </energy>
  </scstep>
  <scstep>
   <time name="dav">   75.45   76.04</time>
   <time name="total">   77.20   77.80</time>
   <energy>
    <i name="e_fr_energy">   -209.63362104 </i>
    <i name="e_wo_entrp">   -209.64938556 </i>
    <i name="e_0_energy">   -209.63887588 </i>
   </energy>
  </scstep>
  <scstep>
   <time name="dav">   75.19   75.75</time>
   <time name="total">   76.92   77.50</time>
   <energy>
    <i name="e_fr_energy">   -212.98820097 </i>
    <i name="e_wo_entrp">   -212.99461504 </i>
    <i name="e_0_energy">   -212.99033899 </i>
   </energy>
  </scstep>
  <scstep>
   <time name="dav">   75.91   76.47</time>
   <time name="total">   77.68   78.25</time>
   <energy>
    <i name="e_fr_energy">   -214.57205461 </i>
    <i name="e_wo_entrp">   -214.57618419 </i>
    <i name="e_0_energy">   -214.57343113 </i>
   </energy>
  </scstep>
  <scstep>
   <time name="dav">   73.07   74.19</time>
   <time name="total">   74.83   75.97</time>
   <energy>
    <i name="e_fr_energy">   -215.86049086 </i>
    <i name="e_wo_entrp">   -215.86483367 </i>
    <i name="e_0_energy">   -215.86193847 </i>
   </energy>
  </scstep>
  <scstep>
   <time name="dav">   81.20   81.73</time>
   <time name="total">   82.98   83.53</time>
   <energy>
    <i name="e_fr_energy">   -216.69437474 </i>
    <i name="e_wo_entrp">   -216.69834772 </i>
    <i name="e_0_energy">   -216.69569906 </i>
   </energy>
  </scstep>
  <scstep>
   <time name="dav">   73.24   73.72</time>
   <time name="total">   75.00   75.49</time>
   <energy>
    <i name="e_fr_energy">   -217.27961171 </i>
    <i name="e_wo_entrp">   -217.28507899 </i>
    <i name="e_0_energy">   -217.28143414 </i>
   </energy>
  </scstep>
  <scstep>
   <time name="dav">   79.46   80.20</time>
   <time name="total">   81.25   82.01</time>
   <energy>
    <i name="e_fr_energy">   -217.62100086 </i>
    <i name="e_wo_entrp">   -217.62674211 </i>
    <i name="e_0_energy">   -217.62291461 </i>
   </energy>
  </scstep>
  <scstep>
   <time name="dav">   86.54   87.70</time>
   <time name="total">   88.31   89.48</time>
   <energy>
    <i name="e_fr_energy">   -218.01504831 </i>
    <i name="e_wo_entrp">   -218.01911653 </i>
    <i name="e_0_energy">   -218.01640438 </i>
   </energy>
  </scstep>
  <scstep>
   <time name="dav">   76.99   77.49</time>
   <time name="total">   78.73   79.25</time>
   <energy>
    <i name="e_fr_energy">   -218.29142980 </i>
    <i name="e_wo_entrp">   -218.29592902 </i>
    <i name="e_0_energy">   -218.29292954 </i>
   </energy>
  </scstep>
  <scstep>
   <time name="dav">   65.47   65.90</time>
   <time name="total">   67.25   67.69</time>
   <energy>
    <i name="e_fr_energy">   -218.60184995 </i>
    <i name="e_wo_entrp">   -218.60656229 </i>
    <i name="e_0_energy">   -218.60342073 </i>
   </energy>
  </scstep>
  <scstep>
   <time name="dav">   69.77   70.33</time>
   <time name="total">   71.49   72.06</time>
   <energy>
    <i name="e_fr_energy">   -218.64036209 </i>
    <i name="e_wo_entrp">   -218.64519143 </i>
    <i name="e_0_energy">   -218.64197187 </i>
   </energy>
  </scstep>
  <scstep>
   <time name="dav">   70.13   71.35</time>
   <time name="total">   71.90   73.13</time>
   <energy>
    <i name="e_fr_energy">   -218.66538942 </i>
    <i name="e_wo_entrp">   -218.67039476 </i>
    <i name="e_0_energy">   -218.66705787 </i>
   </energy>
  </scstep>
  <scstep>
   <time name="dav">   57.92   58.37</time>
   <time name="total">   59.73   60.19</time>
   <energy>
    <i name="e_fr_energy">   -218.68764841 </i>
    <i name="e_wo_entrp">   -218.69280369 </i>
    <i name="e_0_energy">   -218.68936683 </i>
   </energy>
  </scstep>
  <scstep>
   <time name="dav">   49.41   49.77</time>
   <time name="total">   51.20   51.57</time>
   <energy>
    <i name="e_fr_energy">   -218.69203849 </i>
    <i name="e_wo_entrp">   -218.69717711 </i>
    <i name="e_0_energy">   -218.69375136 </i>
   </energy>
  </scstep>
  <scstep>
   <time name="dav">   46.65   46.98</time>
   <time name="total">   48.43   48.77</time>
   <energy>
    <i name="e_fr_energy">   -218.69244908 </i>
    <i name="e_wo_entrp">   -218.69762837 </i>
    <i name="e_0_energy">   -218.69417551 </i>
   </energy>
  </scstep>
  <scstep>
   <time name="dav">   48.01   48.46</time>
   <time name="total">   48.18   48.64</time>
   <energy>
    <i name="alphaZ">   1524.82200598 </i>
    <i name="ewald"> 294420.48931247 </i>
    <i name="hartreedc">-378164.70199256 </i>
    <i name="XCdc">   2803.62096779 </i>
    <i name="pawpsdc">  81840.39521698 </i>
    <i name="pawaedc"> -88614.89082311 </i>
    <i name="eentropy">      0.00515882 </i>
    <i name="bandstr">  -1658.76369754 </i>
    <i name="atom">  87630.33133259 </i>
    <i name="e_fr_energy">   -218.69251859 </i>
    <i name="e_wo_entrp">   -218.69767741 </i>
    <i name="e_0_energy">   -218.69423820 </i>
   </energy>
  </scstep>
  <dipole>
   <v name="dipole">      0.00000000       0.00000000       0.03342315 </v>
   <i name="Tr[quadrupol]"> -10593.63732810 </i>
   <i name="Echarged">      0.00000000 </i>
   <i name="Edipol_quadrupol">      0.00000000 </i>
   <i name="Eion">      0.00000000 </i>
  </dipole>
  <structure>
   <crystal>
    <varray name="basis" >
     <v>      10.89000034       0.00000000       0.00000000 </v>
     <v>       0.00000000       7.70039320       0.00000000 </v>
     <v>       0.00000000       0.00000000      22.70039300 </v>
    </varray>
    <i name="volume">   1903.59331612 </i>
    <varray name="rec_basis" >
     <v>       0.09182736       0.00000000       0.00000000 </v>
     <v>       0.00000000       0.12986350       0.00000000 </v>
     <v>       0.00000000       0.00000000       0.04405210 </v>
    </varray>
   </crystal>
   <varray name="positions" >
    <v>       0.00000000       0.00000000       0.00000000 </v>
    <v>       0.00000000       0.33333333       0.00000000 </v>
    <v>       0.00000000       0.66666667       0.00000000 </v>
    <v>       0.33333333       0.00000000       0.00000000 </v>
    <v>       0.33333333       0.33333333       0.00000000 </v>
    <v>       0.33333333       0.66666667       0.00000000 </v>
    <v>       0.66666667       0.00000000       0.00000000 </v>
    <v>       0.66666667       0.33333333       0.00000000 </v>
    <v>       0.66666667       0.66666667       0.00000000 </v>
    <v>       0.16666667       0.16666667       0.05653641 </v>
    <v>       0.16666667       0.50000000       0.05653641 </v>
    <v>       0.16666667       0.83333333       0.05653641 </v>
    <v>       0.50000000       0.16666667       0.05653641 </v>
    <v>       0.50000000       0.50000000       0.05653641 </v>
    <v>       0.50000000       0.83333333       0.05653641 </v>
    <v>       0.83333333       0.16666667       0.05653641 </v>
    <v>       0.83333333       0.50000000       0.05653641 </v>
    <v>       0.83333333       0.83333333       0.05653641 </v>
    <v>       0.00000000       0.00000000       0.11307283 </v>
    <v>       0.00000000       0.33333333       0.11307283 </v>
    <v>       0.00000000       0.66666667       0.11307283 </v>
    <v>       0.33333333       0.00000000       0.11307283 </v>
    <v>       0.33333333       0.33333333       0.11307283 </v>
    <v>       0.33333333       0.66666667       0.11307283 </v>
    <v>       0.66666667       0.00000000       0.11307283 </v>
    <v>       0.66666667       0.33333333       0.11307283 </v>
    <v>       0.66666667       0.66666667       0.11307283 </v>
    <v>       0.16666667       0.16666667       0.16960924 </v>
    <v>       0.16666667       0.50000000       0.16960924 </v>
    <v>       0.16666667       0.83333333       0.16960924 </v>
    <v>       0.50000000       0.16666667       0.16960924 </v>
    <v>       0.50000000       0.50000000       0.16960924 </v>
    <v>       0.50000000       0.83333333       0.16960924 </v>
    <v>       0.83333333       0.16666667       0.16960924 </v>
    <v>       0.83333333       0.50000000       0.16960924 </v>
    <v>       0.83333333       0.83333333       0.16960924 </v>
    <v>       0.00000000       0.00000000       0.22614566 </v>
    <v>       0.00000000       0.33333333       0.22614566 </v>
    <v>       0.00000000       0.66666667       0.22614566 </v>
    <v>       0.33333333       0.00000000       0.22614566 </v>
    <v>       0.33333333       0.33333333       0.22614566 </v>
    <v>       0.33333333       0.66666667       0.22614566 </v>
    <v>       0.66666667       0.00000000       0.22614566 </v>
    <v>       0.66666667       0.33333333       0.22614566 </v>
    <v>       0.66666667       0.66666667       0.22614566 </v>
    <v>       0.16666667       0.16666667       0.28268207 </v>
    <v>       0.16666667       0.50000000       0.28268207 </v>
    <v>       0.16666667       0.83333333       0.28268207 </v>
    <v>       0.50000000       0.16666667       0.28268207 </v>
    <v>       0.50000000       0.50000000       0.28268207 </v>
    <v>       0.50000000       0.83333333       0.28268207 </v>
    <v>       0.83333333       0.16666667       0.28268207 </v>
    <v>       0.83333333       0.50000000       0.28268207 </v>
    <v>       0.83333333       0.83333333       0.28268207 </v>
    <v>       0.00000000       0.00000000       0.33921849 </v>
    <v>       0.00000000       0.33333333       0.33921849 </v>
    <v>       0.00000000       0.66666667       0.33921849 </v>
    <v>       0.33333333       0.00000000       0.33921849 </v>
    <v>       0.33333333       0.33333333       0.33921849 </v>
    <v>       0.33333333       0.66666667       0.33921849 </v>
    <v>       0.66666667       0.00000000       0.33921849 </v>
    <v>       0.66666667       0.33333333       0.33921849 </v>
    <v>       0.66666667       0.66666667       0.33921849 </v>
   </varray>
  </structure>
  <varray name="forces" >
   <v>      -0.00000000      -0.00000000       0.53608322 </v>
   <v>       0.00000000       0.00000000       0.53608322 </v>
   <v>      -0.00000000      -0.00000000       0.53608322 </v>
   <v>      -0.00000000      -0.00000000       0.53608322 </v>
   <v>      -0.00000000       0.00000000       0.53608322 </v>
   <v>       0.00000000      -0.00000000       0.53608322 </v>
   <v>      -0.00000000      -0.00000000       0.53608322 </v>
   <v>       0.00000000       0.00000000       0.53608322 </v>
   <v>      -0.00000000      -0.00000000       0.53608322 </v>
   <v>       0.00000000      -0.00000000      -0.21185864 </v>
   <v>       0.00000000      -0.00000000      -0.21185864 </v>
   <v>       0.00000000       0.00000000      -0.21185864 </v>
   <v>       0.00000000      -0.00000000      -0.21185864 </v>
   <v>      -0.00000000      -0.00000000      -0.21185864 </v>
   <v>       0.00000000       0.00000000      -0.21185864 </v>
   <v>       0.00000000      -0.00000000      -0.21185864 </v>
   <v>      -0.00000000      -0.00000000      -0.21185864 </v>
   <v>      -0.00000000      -0.00000000      -0.21185864 </v>
   <v>       0.00000000      -0.00000000       0.02035073 </v>
   <v>      -0.00000000       0.00000000       0.02035073 </v>
   <v>       0.00000000      -0.00000000       0.02035073 </v>
   <v>       0.00000000      -0.00000000       0.02035073 </v>
   <v>      -0.00000000       0.00000000       0.02035073 </v>
   <v>       0.00000000      -0.00000000       0.02035073 </v>
   <v>       0.00000000      -0.00000000       0.02035073 </v>
   <v>      -0.00000000      -0.00000000       0.02035073 </v>
   <v>       0.00000000      -0.00000000       0.02035073 </v>
   <v>       0.00000000      -0.00000000       0.00064664 </v>
   <v>       0.00000000      -0.00000000       0.00064664 </v>
   <v>       0.00000000       0.00000000       0.00064664 </v>
   <v>       0.00000000      -0.00000000       0.00064664 </v>
   <v>      -0.00000000      -0.00000000       0.00064664 </v>
   <v>      -0.00000000      -0.00000000       0.00064664 </v>
   <v>      -0.00000000      -0.00000000       0.00064664 </v>
   <v>       0.00000000      -0.00000000       0.00064664 </v>
   <v>       0.00000000       0.00000000       0.00064664 </v>
   <v>       0.00000000      -0.00000000      -0.02101980 </v>
   <v>       0.00000000      -0.00000000      -0.02101980 </v>
   <v>       0.00000000      -0.00000000      -0.02101980 </v>
   <v>       0.00000000      -0.00000000      -0.02101980 </v>
   <v>      -0.00000000       0.00000000      -0.02101980 </v>
   <v>      -0.00000000      -0.00000000      -0.02101980 </v>
   <v>       0.00000000      -0.00000000      -0.02101980 </v>
   <v>       0.00000000      -0.00000000      -0.02101980 </v>
   <v>      -0.00000000      -0.00000000      -0.02101980 </v>
   <v>       0.00000000      -0.00000000       0.21112491 </v>
   <v>       0.00000000       0.00000000       0.21112491 </v>
   <v>      -0.00000000       0.00000000       0.21112491 </v>
   <v>      -0.00000000      -0.00000000       0.21112491 </v>
   <v>       0.00000000      -0.00000000       0.21112491 </v>
   <v>      -0.00000000      -0.00000000       0.21112491 </v>
   <v>      -0.00000000      -0.00000000       0.21112491 </v>
   <v>      -0.00000000      -0.00000000       0.21112491 </v>
   <v>      -0.00000000       0.00000000       0.21112491 </v>
   <v>      -0.00000000      -0.00000000      -0.53532706 </v>
   <v>       0.00000000      -0.00000000      -0.53532706 </v>
   <v>      -0.00000000      -0.00000000      -0.53532706 </v>
   <v>      -0.00000000      -0.00000000      -0.53532706 </v>
   <v>       0.00000000       0.00000000      -0.53532706 </v>
   <v>       0.00000000      -0.00000000      -0.53532706 </v>
   <v>      -0.00000000      -0.00000000      -0.53532706 </v>
   <v>      -0.00000000      -0.00000000      -0.53532706 </v>
   <v>       0.00000000      -0.00000000      -0.53532706 </v>
  </varray>
  <varray name="stress" >
   <v>     -39.35441890       0.00000000       0.00000000 </v>
   <v>       0.00000000     -41.46812114       0.00000000 </v>
   <v>       0.00000000       0.00000000     -26.92604461 </v>
  </varray>
  <energy>
   <i name="e_fr_energy">   -240.97654133 </i>
   <i name="e_wo_entrp">   -240.98170015 </i>
   <i name="e_0_energy">   -240.97826093 </i>
  </energy>
  <time name="totalsc"> 2324.25 2346.49</time>
 </calculation>
 <calculation>
  <scstep>
   <time name="dav">   68.86   69.32</time>
   <time name="total">   70.65   71.12</time>
   <energy>
    <i name="alphaZ">   1524.82200598 </i>
    <i name="ewald"> 295122.50556675 </i>
    <i name="hartreedc">-378864.30036967 </i>
    <i name="XCdc">   2804.00256889 </i>
    <i name="pawpsdc">  81838.66414570 </i>
    <i name="pawaedc"> -88613.05251168 </i>
    <i name="eentropy">     -0.00157047 </i>
    <i name="bandstr">  -1661.69999176 </i>
    <i name="atom">  87630.33133259 </i>
    <i name="e_fr_energy">   -218.72882367 </i>
    <i name="e_wo_entrp">   -218.72725321 </i>
    <i name="e_0_energy">   -218.72830019 </i>
   </energy>
  </scstep>
  <scstep>
   <time name="dav">   90.33   90.98</time>
   <time name="total">   92.12   92.78</time>
   <energy>
    <i name="e_fr_energy">   -218.80669126 </i>
    <i name="e_wo_entrp">   -218.80520314 </i>
    <i name="e_0_energy">   -218.80619522 </i>
   </energy>
  </scstep>
  <scstep>
   <time name="dav">   73.71   74.74</time>
   <time name="total">   75.48   76.52</time>
   <energy>
    <i name="e_fr_energy">   -218.79764630 </i>
    <i name="e_wo_entrp">   -218.79648285 </i>
    <i name="e_0_energy">   -218.79725848 </i>
   </energy>
  </scstep>
  <scstep>
   <time name="dav">   70.89   71.36</time>
   <time name="total">   72.66   73.14</time>
   <energy>
    <i name="e_fr_energy">   -218.79760249 </i>
    <i name="e_wo_entrp">   -218.79623015 </i>
    <i name="e_0_energy">   -218.79714504 </i>
   </energy>
  </scstep>
  <scstep>
   <time name="dav">   65.43   65.86</time>
   <time name="total">   67.20   67.65</time>
   <energy>
    <i name="e_fr_energy">   -218.79755635 </i>
    <i name="e_wo_entrp">   -218.79606037 </i>
    <i name="e_0_energy">   -218.79705769 </i>
   </energy>
  </scstep>
  <scstep>
   <time name="dav">   73.05   73.57</time>
   <time name="total">   74.81   75.34</time>
   <energy>
    <i name="e_fr_energy">   -218.79656731 </i>
    <i name="e_wo_entrp">   -218.79489501 </i>
    <i name="e_0_energy">   -218.79600988 </i>
   </energy>
  </scstep>
  <scstep>
   <time name="dav">   83.23   84.77</time>
   <time name="total">   85.01   86.57</time>
   <energy>
    <i name="e_fr_energy">   -218.79659889 </i>
    <i name="e_wo_entrp">   -218.79461375 </i>
    <i name="e_0_energy">   -218.79593718 </i>
   </energy>
  </scstep>
  <scstep>
   <time name="dav">   46.95   47.54</time>
   <time name="total">   47.11   47.71</time>
   <energy>
    <i name="alphaZ">   1524.82200598 </i>
    <i name="ewald"> 295122.50556675 </i>
    <i name="hartreedc">-378857.86540247 </i>
    <i name="XCdc">   2803.84017203 </i>
    <i name="pawpsdc">  81879.86160260 </i>
    <i name="pawaedc"> -88655.20552936 </i>
    <i name="eentropy">     -0.00180434 </i>
    <i name="bandstr">  -1667.08445183 </i>
    <i name="atom">  87630.33133259 </i>
    <i name="e_fr_energy">   -218.79650806 </i>
    <i name="e_wo_entrp">   -218.79470372 </i>
    <i name="e_0_energy">   -218.79590661 </i>
   </energy>
  </scstep>
  <dipole>
   <v name="dipole">      0.00000000       0.00000000       0.00451071 </v>
   <i name="Tr[quadrupol]"> -10593.47614198 </i>
   <i name="Echarged">      0.00000000 </i>
   <i name="Edipol_quadrupol">      0.00000000 </i>
   <i name="Eion">      0.00000000 </i>
  </dipole>
  <structure>
   <crystal>
    <varray name="basis" >
     <v>      10.89000034       0.00000000       0.00000000 </v>
     <v>       0.00000000       7.70039320       0.00000000 </v>
     <v>       0.00000000       0.00000000      22.70039300 </v>
    </varray>
    <i name="volume">   1903.59331612 </i>
    <varray name="rec_basis" >
     <v>       0.09182736       0.00000000       0.00000000 </v>
     <v>       0.00000000       0.12986350       0.00000000 </v>
     <v>       0.00000000       0.00000000       0.04405210 </v>
    </varray>
   </crystal>
   <varray name="positions" >
    <v>       0.00000000       0.00000000       0.00000000 </v>
    <v>       0.00000000       0.33333333       0.00000000 </v>
    <v>       0.00000000       0.66666667       0.00000000 </v>
    <v>       0.33333333       0.00000000       0.00000000 </v>
    <v>       0.33333333       0.33333333       0.00000000 </v>
    <v>       0.33333333       0.66666667       0.00000000 </v>
    <v>       0.66666667       0.00000000       0.00000000 </v>
    <v>       0.66666667       0.33333333       0.00000000 </v>
    <v>       0.66666667       0.66666667       0.00000000 </v>
    <v>       0.16666667       0.16666667       0.05653641 </v>
    <v>       0.16666667       0.50000000       0.05653641 </v>
    <v>       0.16666667       0.83333333       0.05653641 </v>
    <v>       0.50000000       0.16666667       0.05653641 </v>
    <v>       0.50000000       0.50000000       0.05653641 </v>
    <v>       0.50000000       0.83333333       0.05653641 </v>
    <v>       0.83333333       0.16666667       0.05653641 </v>
    <v>       0.83333333       0.50000000       0.05653641 </v>
    <v>       0.83333333       0.83333333       0.05653641 </v>
    <v>       0.00000000      -0.00000000       0.11311608 </v>
    <v>      -0.00000000       0.33333333       0.11311608 </v>
    <v>       0.00000000       0.66666667       0.11311608 </v>
    <v>       0.33333333      -0.00000000       0.11311608 </v>
    <v>       0.33333333       0.33333333       0.11311608 </v>
    <v>       0.33333333       0.66666667       0.11311608 </v>
    <v>       0.66666667      -0.00000000       0.11311608 </v>
    <v>       0.66666667       0.33333333       0.11311608 </v>
    <v>       0.66666667       0.66666667       0.11311608 </v>
    <v>       0.16666667       0.16666667       0.16961062 </v>
    <v>       0.16666667       0.50000000       0.16961062 </v>
    <v>       0.16666667       0.83333333       0.16961062 </v>
    <v>       0.50000000       0.16666667       0.16961062 </v>
    <v>       0.50000000       0.50000000       0.16961062 </v>
    <v>       0.50000000       0.83333333       0.16961062 </v>
    <v>       0.83333333       0.16666667       0.16961062 </v>
    <v>       0.83333333       0.50000000       0.16961062 </v>
    <v>       0.83333333       0.83333333       0.16961062 </v>
    <v>       0.00000000      -0.00000000       0.22610099 </v>
    <v>       0.00000000       0.33333333       0.22610099 </v>
    <v>       0.00000000       0.66666667       0.22610099 </v>
    <v>       0.33333333      -0.00000000       0.22610099 </v>
    <v>       0.33333333       0.33333333       0.22610099 </v>
    <v>       0.33333333       0.66666667       0.22610099 </v>
    <v>       0.66666667      -0.00000000       0.22610099 </v>
    <v>       0.66666667       0.33333333       0.22610099 </v>
    <v>       0.66666667       0.66666667       0.22610099 </v>
    <v>       0.16666667       0.16666667       0.28313075 </v>
    <v>       0.16666667       0.50000000       0.28313075 </v>
    <v>       0.16666667       0.83333333       0.28313075 </v>
    <v>       0.50000000       0.16666667       0.28313075 </v>
    <v>       0.50000000       0.50000000       0.28313075 </v>
    <v>       0.50000000       0.83333333       0.28313075 </v>
    <v>       0.83333333       0.16666667       0.28313075 </v>
    <v>       0.83333333       0.50000000       0.28313075 </v>
    <v>       0.83333333       0.83333333       0.28313075 </v>
    <v>      -0.00000000      -0.00000000       0.33808082 </v>
    <v>       0.00000000       0.33333333       0.33808082 </v>
    <v>      -0.00000000       0.66666667       0.33808082 </v>
    <v>       0.33333333      -0.00000000       0.33808082 </v>
    <v>       0.33333333       0.33333333       0.33808082 </v>
    <v>       0.33333333       0.66666667       0.33808082 </v>
    <v>       0.66666667      -0.00000000       0.33808082 </v>
    <v>       0.66666667       0.33333333       0.33808082 </v>
    <v>       0.66666667       0.66666667       0.33808082 </v>
   </varray>
  </structure>
  <varray name="forces" >
   <v>       0.00000000      -0.00000000       0.53390209 </v>
   <v>      -0.00000000      -0.00000000       0.53390209 </v>
   <v>       0.00000000      -0.00000000       0.53390209 </v>
   <v>       0.00000000      -0.00000000       0.53390209 </v>
   <v>       0.00000000       0.00000000       0.53390209 </v>
   <v>       0.00000000      -0.00000000       0.53390209 </v>
   <v>       0.00000000      -0.00000000       0.53390209 </v>
   <v>      -0.00000000      -0.00000000       0.53390209 </v>
   <v>       0.00000000      -0.00000000       0.53390209 </v>
   <v>       0.00000000      -0.00000000      -0.21625290 </v>
   <v>      -0.00000000      -0.00000000      -0.21625290 </v>
   <v>      -0.00000000      -0.00000000      -0.21625290 </v>
   <v>      -0.00000000      -0.00000000      -0.21625290 </v>
   <v>      -0.00000000       0.00000000      -0.21625290 </v>
   <v>      -0.00000000       0.00000000      -0.21625290 </v>
   <v>      -0.00000000      -0.00000000      -0.21625290 </v>
   <v>       0.00000000       0.00000000      -0.21625290 </v>
   <v>       0.00000000      -0.00000000      -0.21625290 </v>
   <v>      -0.00000000      -0.00000000       0.01153951 </v>
   <v>      -0.00000000       0.00000000       0.01153951 </v>
   <v>      -0.00000000      -0.00000000       0.01153951 </v>
   <v>       0.00000000      -0.00000000       0.01153951 </v>
   <v>       0.00000000       0.00000000       0.01153951 </v>
   <v>       0.00000000      -0.00000000       0.01153951 </v>
   <v>      -0.00000000      -0.00000000       0.01153951 </v>
   <v>      -0.00000000       0.00000000       0.01153951 </v>
   <v>      -0.00000000      -0.00000000       0.01153951 </v>
   <v>       0.00000000      -0.00000000       0.00931101 </v>
   <v>       0.00000000      -0.00000000       0.00931101 </v>
   <v>       0.00000000      -0.00000000       0.00931101 </v>
   <v>      -0.00000000      -0.00000000       0.00931101 </v>
   <v>      -0.00000000      -0.00000000       0.00931101 </v>
   <v>      -0.00000000      -0.00000000       0.00931101 </v>
   <v>       0.00000000      -0.00000000       0.00931101 </v>
   <v>       0.00000000      -0.00000000       0.00931101 </v>
   <v>      -0.00000000       0.00000000       0.00931101 </v>
   <v>       0.00000000      -0.00000000      -0.04713158 </v>
   <v>      -0.00000000      -0.00000000      -0.04713158 </v>
   <v>       0.00000000      -0.00000000      -0.04713158 </v>
   <v>       0.00000000      -0.00000000      -0.04713158 </v>
   <v>      -0.00000000      -0.00000000      -0.04713158 </v>
   <v>       0.00000000      -0.00000000      -0.04713158 </v>
   <v>       0.00000000      -0.00000000      -0.04713158 </v>
   <v>       0.00000000       0.00000000      -0.04713158 </v>
   <v>       0.00000000      -0.00000000      -0.04713158 </v>
   <v>       0.00000000      -0.00000000       0.12131385 </v>
   <v>       0.00000000      -0.00000000       0.12131385 </v>
   <v>       0.00000000      -0.00000000       0.12131385 </v>
   <v>      -0.00000000      -0.00000000       0.12131385 </v>
   <v>       0.00000000      -0.00000000       0.12131385 </v>
   <v>      -0.00000000      -0.00000000       0.12131385 </v>
   <v>      -0.00000000      -0.00000000       0.12131385 </v>
   <v>      -0.00000000      -0.00000000       0.12131385 </v>
   <v>      -0.00000000       0.00000000       0.12131385 </v>
   <v>      -0.00000000      -0.00000000      -0.41268199 </v>
   <v>       0.00000000       0.00000000      -0.41268199 </v>
   <v>       0.00000000      -0.00000000      -0.41268199 </v>
   <v>      -0.00000000      -0.00000000      -0.41268199 </v>
   <v>      -0.00000000       0.00000000      -0.41268199 </v>
   <v>      -0.00000000      -0.00000000      -0.41268199 </v>
   <v>       0.00000000      -0.00000000      -0.41268199 </v>
   <v>       0.00000000       0.00000000      -0.41268199 </v>
   <v>       0.00000000      -0.00000000      -0.41268199 </v>
  </varray>
  <varray name="stress" >
   <v>     -38.42709472       0.00000000       0.00000000 </v>
   <v>       0.00000000     -41.03016523       0.00000000 </v>
   <v>       0.00000000       0.00000000     -25.68164563 </v>
  </varray>
  <energy>
   <i name="e_fr_energy">   -241.10238488 </i>
   <i name="e_wo_entrp">   -241.10058054 </i>
   <i name="e_0_energy">   -241.10178343 </i>
  </energy>
  <time name="totalsc">  729.70  736.32</time>
 </calculation>
 <calculation>
  <scstep>
   <time name="dav">   71.13   71.77</time>
   <time name="total">   72.89   73.54</time>
   <energy>
    <i name="alphaZ">   1524.82200598 </i>
    <i name="ewald"> 297187.46792721 </i>
    <i name="hartreedc">-380918.13959696 </i>
    <i name="XCdc">   2805.09037941 </i>
    <i name="pawpsdc">  81880.02918118 </i>
    <i name="pawaedc"> -88655.37544014 </i>
    <i name="eentropy">     -0.02091170 </i>
    <i name="bandstr">  -1672.38413091 </i>
    <i name="atom">  87630.33133259 </i>
    <i name="e_fr_energy">   -218.17925334 </i>
    <i name="e_wo_entrp">   -218.15834164 </i>
    <i name="e_0_energy">   -218.17228278 </i>
   </energy>
  </scstep>
  <scstep>
   <time name="dav">   97.58   99.00</time>
   <time name="total">   99.34  100.77</time>
   <energy>
    <i name="e_fr_energy">   -219.00858706 </i>
    <i name="e_wo_entrp">   -218.98661507 </i>
    <i name="e_0_energy">   -219.00126307 </i>
   </energy>
  </scstep>
  <scstep>
   <time name="dav">   68.89   69.35</time>
   <time name="total">   70.69   71.16</time>
   <energy>
    <i name="e_fr_energy">   -218.90649410 </i>
    <i name="e_wo_entrp">   -218.88670867 </i>
    <i name="e_0_energy">   -218.89989896 </i>
   </energy>
  </scstep>
  <scstep>
   <time name="dav">   70.67   71.14</time>
   <time name="total">   72.41   72.89</time>
   <energy>
    <i name="e_fr_energy">   -218.90893136 </i>
    <i name="e_wo_entrp">   -218.88830869 </i>
    <i name="e_0_energy">   -218.90205714 </i>
   </energy>
  </scstep>
  <scstep>
   <time name="dav">   69.15   70.11</time>
   <time name="total">   70.94   71.92</time>
   <energy>
    <i name="e_fr_energy">   -218.90955547 </i>
    <i name="e_wo_entrp">   -218.88866856 </i>
    <i name="e_0_energy">   -218.90259316 </i>
   </energy>
  </scstep>
  <scstep>
   <time name="dav">   85.02   86.24</time>
   <time name="total">   86.78   88.02</time>
   <energy>
    <i name="e_fr_energy">   -218.90119372 </i>
    <i name="e_wo_entrp">   -218.87997435 </i>
    <i name="e_0_energy">   -218.89412060 </i>
   </energy>
  </scstep>
  <scstep>
   <time name="dav">   92.39   93.02</time>
   <time name="total">   94.15   94.78</time>
   <energy>
    <i name="e_fr_energy">   -218.89940286 </i>
    <i name="e_wo_entrp">   -218.87737051 </i>
    <i name="e_0_energy">   -218.89205874 </i>
   </energy>
  </scstep>
  <scstep>
   <time name="dav">   68.15   68.68</time>
   <time name="total">   69.93   70.47</time>
   <energy>
    <i name="e_fr_energy">   -218.89885267 </i>
    <i name="e_wo_entrp">   -218.87734086 </i>
    <i name="e_0_energy">   -218.89168207 </i>
   </energy>
  </scstep>
  <scstep>
   <time name="dav">   72.39   73.45</time>
   <time name="total">   72.55   73.61</time>
   <energy>
    <i name="alphaZ">   1524.82200598 </i>
    <i name="ewald"> 297187.46792721 </i>
    <i name="hartreedc">-380901.38752227 </i>
    <i name="XCdc">   2804.57082989 </i>
    <i name="pawpsdc">  82017.43587516 </i>
    <i name="pawaedc"> -88795.35663289 </i>
    <i name="eentropy">     -0.02165288 </i>
    <i name="bandstr">  -1686.76090058 </i>
    <i name="atom">  87630.33133259 </i>
    <i name="e_fr_energy">   -218.89873779 </i>
    <i name="e_wo_entrp">   -218.87708491 </i>
    <i name="e_0_energy">   -218.89152016 </i>
   </energy>
  </scstep>
  <dipole>
   <v name="dipole">      0.00000000       0.00000000       0.01989060 </v>
   <i name="Tr[quadrupol]"> -10593.32031224 </i>
   <i name="Echarged">      0.00000000 </i>
   <i name="Edipol_quadrupol">      0.00000000 </i>
   <i name="Eion">      0.00000000 </i>
  </dipole>
  <structure>
   <crystal>
    <varray name="basis" >
     <v>      10.89000034       0.00000000       0.00000000 </v>
     <v>       0.00000000       7.70039320       0.00000000 </v>
     <v>       0.00000000       0.00000000      22.70039300 </v>
    </varray>
    <i name="volume">   1903.59331612 </i>
    <varray name="rec_basis" >
     <v>       0.09182736       0.00000000       0.00000000 </v>
     <v>       0.00000000       0.12986350       0.00000000 </v>
     <v>       0.00000000       0.00000000       0.04405210 </v>
    </varray>
   </crystal>
   <varray name="positions" >
    <v>       0.00000000       0.00000000       0.00000000 </v>
    <v>       0.00000000       0.33333333       0.00000000 </v>
    <v>       0.00000000       0.66666667       0.00000000 </v>
    <v>       0.33333333       0.00000000       0.00000000 </v>
    <v>       0.33333333       0.33333333       0.00000000 </v>
    <v>       0.33333333       0.66666667       0.00000000 </v>
    <v>       0.66666667       0.00000000       0.00000000 </v>
    <v>       0.66666667       0.33333333       0.00000000 </v>
    <v>       0.66666667       0.66666667       0.00000000 </v>
    <v>       0.16666667       0.16666667       0.05653641 </v>
    <v>       0.16666667       0.50000000       0.05653641 </v>
    <v>       0.16666667       0.83333333       0.05653641 </v>
    <v>       0.50000000       0.16666667       0.05653641 </v>
    <v>       0.50000000       0.50000000       0.05653641 </v>
    <v>       0.50000000       0.83333333       0.05653641 </v>
    <v>       0.83333333       0.16666667       0.05653641 </v>
    <v>       0.83333333       0.50000000       0.05653641 </v>
    <v>       0.83333333       0.83333333       0.05653641 </v>
    <v>       0.00000000      -0.00000000       0.11324328 </v>
    <v>      -0.00000000       0.33333333       0.11324328 </v>
    <v>       0.00000000       0.66666667       0.11324328 </v>
    <v>       0.33333333      -0.00000000       0.11324328 </v>
    <v>       0.33333333       0.33333333       0.11324328 </v>
    <v>       0.33333333       0.66666667       0.11324328 </v>
    <v>       0.66666667      -0.00000000       0.11324328 </v>
    <v>       0.66666667       0.33333333       0.11324328 </v>
    <v>       0.66666667       0.66666667       0.11324328 </v>
    <v>       0.16666667       0.16666667       0.16961466 </v>
    <v>       0.16666667       0.50000000       0.16961466 </v>
    <v>       0.16666667       0.83333333       0.16961466 </v>
    <v>       0.50000000       0.16666667       0.16961466 </v>
    <v>       0.50000000       0.50000000       0.16961466 </v>
    <v>       0.50000000       0.83333333       0.16961466 </v>
    <v>       0.83333333       0.16666667       0.16961466 </v>
    <v>       0.83333333       0.50000000       0.16961466 </v>
    <v>       0.83333333       0.83333333       0.16961466 </v>
    <v>       0.00000000      -0.00000000       0.22596960 </v>
    <v>       0.00000000       0.33333333       0.22596960 </v>
    <v>       0.00000000       0.66666667       0.22596960 </v>
    <v>       0.33333333      -0.00000000       0.22596960 </v>
    <v>       0.33333333       0.33333333       0.22596960 </v>
    <v>       0.33333333       0.66666667       0.22596960 </v>
    <v>       0.66666667      -0.00000000       0.22596960 </v>
    <v>       0.66666667       0.33333333       0.22596960 </v>
    <v>       0.66666667       0.66666667       0.22596960 </v>
    <v>       0.16666667       0.16666667       0.28445037 </v>
    <v>       0.16666667       0.50000000       0.28445037 </v>
    <v>       0.16666667       0.83333333       0.28445037 </v>
    <v>       0.50000000       0.16666667       0.28445037 </v>
    <v>       0.50000000       0.50000000       0.28445037 </v>
    <v>       0.50000000       0.83333333       0.28445037 </v>
    <v>       0.83333333       0.16666667       0.28445037 </v>
    <v>       0.83333333       0.50000000       0.28445037 </v>
    <v>       0.83333333       0.83333333       0.28445037 </v>
    <v>      -0.00000000      -0.00000000       0.33473479 </v>
    <v>       0.00000000       0.33333333       0.33473479 </v>
    <v>      -0.00000000       0.66666667       0.33473479 </v>
    <v>       0.33333333      -0.00000000       0.33473479 </v>
    <v>       0.33333333       0.33333333       0.33473479 </v>
    <v>       0.33333333       0.66666667       0.33473479 </v>
    <v>       0.66666667      -0.00000000       0.33473479 </v>
    <v>       0.66666667       0.33333333       0.33473479 </v>
    <v>       0.66666667       0.66666667       0.33473479 </v>
   </varray>
  </structure>
  <varray name="forces" >
   <v>      -0.00000000      -0.00000000       0.53598114 </v>
   <v>       0.00000000      -0.00000000       0.53598114 </v>
   <v>      -0.00000000       0.00000000       0.53598114 </v>
   <v>       0.00000000       0.00000000       0.53598114 </v>
   <v>       0.00000000       0.00000000       0.53598114 </v>
   <v>       0.00000000       0.00000000       0.53598114 </v>
   <v>       0.00000000       0.00000000       0.53598114 </v>
   <v>      -0.00000000      -0.00000000       0.53598114 </v>
   <v>      -0.00000000       0.00000000       0.53598114 </v>
   <v>       0.00000000       0.00000000      -0.21893309 </v>
   <v>      -0.00000000       0.00000000      -0.21893309 </v>
   <v>       0.00000000       0.00000000      -0.21893309 </v>
   <v>      -0.00000000       0.00000000      -0.21893309 </v>
   <v>       0.00000000      -0.00000000      -0.21893309 </v>
   <v>       0.00000000      -0.00000000      -0.21893309 </v>
   <v>       0.00000000       0.00000000      -0.21893309 </v>
   <v>      -0.00000000       0.00000000      -0.21893309 </v>
   <v>       0.00000000       0.00000000      -0.21893309 </v>
   <v>      -0.00000000       0.00000000      -0.00149650 </v>
   <v>      -0.00000000       0.00000000      -0.00149650 </v>
   <v>      -0.00000000       0.00000000      -0.00149650 </v>
   <v>       0.00000000       0.00000000      -0.00149650 </v>
   <v>       0.00000000       0.00000000      -0.00149650 </v>
   <v>       0.00000000       0.00000000      -0.00149650 </v>
   <v>      -0.00000000       0.00000000      -0.00149650 </v>
   <v>      -0.00000000       0.00000000      -0.00149650 </v>
   <v>      -0.00000000       0.00000000      -0.00149650 </v>
   <v>       0.00000000       0.00000000       0.03672815 </v>
   <v>       0.00000000       0.00000000       0.03672815 </v>
   <v>       0.00000000       0.00000000       0.03672815 </v>
   <v>      -0.00000000       0.00000000       0.03672815 </v>
   <v>      -0.00000000       0.00000000       0.03672815 </v>
   <v>      -0.00000000       0.00000000       0.03672815 </v>
   <v>       0.00000000       0.00000000       0.03672815 </v>
   <v>      -0.00000000       0.00000000       0.03672815 </v>
   <v>      -0.00000000       0.00000000       0.03672815 </v>
   <v>      -0.00000000       0.00000000      -0.16438721 </v>
   <v>       0.00000000      -0.00000000      -0.16438721 </v>
   <v>      -0.00000000       0.00000000      -0.16438721 </v>
   <v>       0.00000000       0.00000000      -0.16438721 </v>
   <v>       0.00000000      -0.00000000      -0.16438721 </v>
   <v>      -0.00000000       0.00000000      -0.16438721 </v>
   <v>      -0.00000000       0.00000000      -0.16438721 </v>
   <v>       0.00000000      -0.00000000      -0.16438721 </v>
   <v>      -0.00000000       0.00000000      -0.16438721 </v>
   <v>      -0.00000000       0.00000000      -0.14159100 </v>
   <v>       0.00000000       0.00000000      -0.14159100 </v>
   <v>       0.00000000      -0.00000000      -0.14159100 </v>
   <v>      -0.00000000       0.00000000      -0.14159100 </v>
   <v>       0.00000000       0.00000000      -0.14159100 </v>
   <v>      -0.00000000      -0.00000000      -0.14159100 </v>
   <v>       0.00000000       0.00000000      -0.14159100 </v>
   <v>      -0.00000000       0.00000000      -0.14159100 </v>
   <v>      -0.00000000       0.00000000      -0.14159100 </v>
   <v>      -0.00000000       0.00000000      -0.04630148 </v>
   <v>       0.00000000      -0.00000000      -0.04630148 </v>
   <v>      -0.00000000       0.00000000      -0.04630148 </v>
   <v>      -0.00000000       0.00000000      -0.04630148 </v>
   <v>       0.00000000       0.00000000      -0.04630148 </v>
   <v>      -0.00000000       0.00000000      -0.04630148 </v>
   <v>       0.00000000       0.00000000      -0.04630148 </v>
   <v>      -0.00000000      -0.00000000      -0.04630148 </v>
   <v>       0.00000000       0.00000000      -0.04630148 </v>
  </varray>
  <varray name="stress" >
   <v>     -34.50777016       0.00000000       0.00000000 </v>
   <v>       0.00000000     -38.98127828       0.00000000 </v>
   <v>       0.00000000       0.00000000     -21.14764528 </v>
  </varray>
  <energy>
   <i name="e_fr_energy">   -241.27076058 </i>
   <i name="e_wo_entrp">   -241.24910770 </i>
   <i name="e_0_energy">   -241.26354295 </i>
  </energy>
  <time name="totalsc">  855.12  863.95</time>
 </calculation>
 <calculation>
  <scstep>
   <time name="dav">   68.30   68.79</time>
   <time name="total">   70.07   70.57</time>
   <energy>
    <i name="alphaZ">   1524.82200598 </i>
    <i name="ewald"> 297932.80541500 </i>
    <i name="hartreedc">-381645.02352565 </i>
    <i name="XCdc">   2804.76388348 </i>
    <i name="pawpsdc">  82016.22507167 </i>
    <i name="pawaedc"> -88794.20914749 </i>
    <i name="eentropy">     -0.02002495 </i>
    <i name="bandstr">  -1688.56042584 </i>
    <i name="atom">  87630.33133259 </i>
    <i name="e_fr_energy">   -218.86541521 </i>
    <i name="e_wo_entrp">   -218.84539026 </i>
    <i name="e_0_energy">   -218.85874023 </i>
   </energy>
  </scstep>
  <scstep>
   <time name="dav">   92.96   94.11</time>
   <time name="total">   94.79   95.95</time>
   <energy>
    <i name="e_fr_energy">   -218.89589652 </i>
    <i name="e_wo_entrp">   -218.87517058 </i>
    <i name="e_0_energy">   -218.88898787 </i>
   </energy>
  </scstep>
  <scstep>
   <time name="dav">   69.10   69.88</time>
   <time name="total">   70.86   71.67</time>
   <energy>
    <i name="e_fr_energy">   -218.89541378 </i>
    <i name="e_wo_entrp">   -218.87515965 </i>
    <i name="e_0_energy">   -218.88866241 </i>
   </energy>
  </scstep>
  <scstep>
   <time name="dav">   65.83   66.31</time>
   <time name="total">   67.58   68.07</time>
   <energy>
    <i name="e_fr_energy">   -218.89529521 </i>
    <i name="e_wo_entrp">   -218.87496468 </i>
    <i name="e_0_energy">   -218.88851837 </i>
   </energy>
  </scstep>
  <scstep>
   <time name="dav">   66.75   67.20</time>
   <time name="total">   68.52   68.99</time>
   <energy>
    <i name="e_fr_energy">   -218.89500101 </i>
    <i name="e_wo_entrp">   -218.87451478 </i>
    <i name="e_0_energy">   -218.88817227 </i>
   </energy>
  </scstep>
  <scstep>
   <time name="dav">   98.07   99.35</time>
   <time name="total">   99.85  101.14</time>
   <energy>
    <i name="e_fr_energy">   -218.89454706 </i>
    <i name="e_wo_entrp">   -218.87424463 </i>
    <i name="e_0_energy">   -218.88777958 </i>
   </energy>
  </scstep>
  <scstep>
   <time name="dav">   49.75   50.32</time>
   <time name="total">   49.93   50.50</time>
   <energy>
    <i name="alphaZ">   1524.82200598 </i>
    <i name="ewald"> 297932.80541500 </i>
    <i name="hartreedc">-381642.79926713 </i>
    <i name="XCdc">   2804.68323479 </i>
    <i name="pawpsdc">  82038.36599301 </i>
    <i name="pawaedc"> -88816.67800220 </i>
    <i name="eentropy">     -0.02030508 </i>
    <i name="bandstr">  -1690.40496560 </i>
    <i name="atom">  87630.33133259 </i>
    <i name="e_fr_energy">   -218.89455864 </i>
    <i name="e_wo_entrp">   -218.87425356 </i>
    <i name="e_0_energy">   -218.88779028 </i>
   </energy>
  </scstep>
  <dipole>
   <v name="dipole">      0.00000000       0.00000000       0.02763676 </v>
   <i name="Tr[quadrupol]"> -10593.29965850 </i>
   <i name="Echarged">      0.00000000 </i>
   <i name="Edipol_quadrupol">      0.00000000 </i>
   <i name="Eion">      0.00000000 </i>
  </dipole>
  <structure>
   <crystal>
    <varray name="basis" >
     <v>      10.89000034       0.00000000       0.00000000 </v>
     <v>       0.00000000       7.70039320       0.00000000 </v>
     <v>       0.00000000       0.00000000      22.70039300 </v>
    </varray>
    <i name="volume">   1903.59331612 </i>
    <varray name="rec_basis" >
     <v>       0.09182736       0.00000000       0.00000000 </v>
     <v>       0.00000000       0.12986350       0.00000000 </v>
     <v>       0.00000000       0.00000000       0.04405210 </v>
    </varray>
   </crystal>
   <varray name="positions" >
    <v>       0.00000000       0.00000000       0.00000000 </v>
    <v>       0.00000000       0.33333333       0.00000000 </v>
    <v>       0.00000000       0.66666667       0.00000000 </v>
    <v>       0.33333333       0.00000000       0.00000000 </v>
    <v>       0.33333333       0.33333333       0.00000000 </v>
    <v>       0.33333333       0.66666667       0.00000000 </v>
    <v>       0.66666667       0.00000000       0.00000000 </v>
    <v>       0.66666667       0.33333333       0.00000000 </v>
    <v>       0.66666667       0.66666667       0.00000000 </v>
    <v>       0.16666667       0.16666667       0.05653641 </v>
    <v>       0.16666667       0.50000000       0.05653641 </v>
    <v>       0.16666667       0.83333333       0.05653641 </v>
    <v>       0.50000000       0.16666667       0.05653641 </v>
    <v>       0.50000000       0.50000000       0.05653641 </v>
    <v>       0.50000000       0.83333333       0.05653641 </v>
    <v>       0.83333333       0.16666667       0.05653641 </v>
    <v>       0.83333333       0.50000000       0.05653641 </v>
    <v>       0.83333333       0.83333333       0.05653641 </v>
    <v>      -0.00000000      -0.00000000       0.11324903 </v>
    <v>      -0.00000000       0.33333333       0.11324903 </v>
    <v>       0.00000000       0.66666667       0.11324903 </v>
    <v>       0.33333333      -0.00000000       0.11324903 </v>
    <v>       0.33333333       0.33333333       0.11324903 </v>
    <v>       0.33333333       0.66666667       0.11324903 </v>
    <v>       0.66666667      -0.00000000       0.11324903 </v>
    <v>       0.66666667       0.33333333       0.11324903 </v>
    <v>       0.66666667       0.66666667       0.11324903 </v>
    <v>       0.16666667       0.16666667       0.16973897 </v>
    <v>       0.16666667       0.50000000       0.16973897 </v>
    <v>       0.16666667       0.83333333       0.16973897 </v>
    <v>       0.50000000       0.16666667       0.16973897 </v>
    <v>       0.50000000       0.50000000       0.16973897 </v>
    <v>       0.50000000       0.83333333       0.16973897 </v>
    <v>       0.83333333       0.16666667       0.16973897 </v>
    <v>       0.83333333       0.50000000       0.16973897 </v>
    <v>       0.83333333       0.83333333       0.16973897 </v>
    <v>       0.00000000      -0.00000000       0.22540359 </v>
    <v>       0.00000000       0.33333333       0.22540359 </v>
    <v>      -0.00000000       0.66666667       0.22540359 </v>
    <v>       0.33333333      -0.00000000       0.22540359 </v>
    <v>       0.33333333       0.33333333       0.22540359 </v>
    <v>       0.33333333       0.66666667       0.22540359 </v>
    <v>       0.66666667      -0.00000000       0.22540359 </v>
    <v>       0.66666667       0.33333333       0.22540359 </v>
    <v>       0.66666667       0.66666667       0.22540359 </v>
    <v>       0.16666667       0.16666667       0.28408456 </v>
    <v>       0.16666667       0.50000000       0.28408456 </v>
    <v>       0.16666667       0.83333333       0.28408456 </v>
    <v>       0.50000000       0.16666667       0.28408456 </v>
    <v>       0.50000000       0.50000000       0.28408456 </v>
    <v>       0.50000000       0.83333333       0.28408456 </v>
    <v>       0.83333333       0.16666667       0.28408456 </v>
    <v>       0.83333333       0.50000000       0.28408456 </v>
    <v>       0.83333333       0.83333333       0.28408456 </v>
    <v>      -0.00000000      -0.00000000       0.33429429 </v>
    <v>       0.00000000       0.33333333       0.33429429 </v>
    <v>      -0.00000000       0.66666667       0.33429429 </v>
    <v>       0.33333333      -0.00000000       0.33429429 </v>
    <v>       0.33333333       0.33333333       0.33429429 </v>
    <v>       0.33333333       0.66666667       0.33429429 </v>
    <v>       0.66666667      -0.00000000       0.33429429 </v>
    <v>       0.66666667       0.33333333       0.33429429 </v>
    <v>       0.66666667       0.66666667       0.33429429 </v>
   </varray>
  </structure>
  <varray name="forces" >
   <v>      -0.00000000       0.00000000       0.53680225 </v>
   <v>       0.00000000      -0.00000000       0.53680225 </v>
   <v>      -0.00000000       0.00000000       0.53680225 </v>
   <v>       0.00000000       0.00000000       0.53680225 </v>
   <v>       0.00000000       0.00000000       0.53680225 </v>
   <v>       0.00000000       0.00000000       0.53680225 </v>
   <v>      -0.00000000       0.00000000       0.53680225 </v>
   <v>      -0.00000000       0.00000000       0.53680225 </v>
   <v>      -0.00000000       0.00000000       0.53680225 </v>
   <v>       0.00000000       0.00000000      -0.21379354 </v>
   <v>       0.00000000       0.00000000      -0.21379354 </v>
   <v>      -0.00000000       0.00000000      -0.21379354 </v>
   <v>      -0.00000000       0.00000000      -0.21379354 </v>
[...]
       <r>    -7.8544     1.1641     1.3203 </r>
       <r>    -7.7830     1.5657     1.4321 </r>
       <r>    -7.7116     1.5780     1.5447 </r>
       <r>    -7.6402     1.1812     1.6291 </r>
       <r>    -7.5688     1.0346     1.7030 </r>
       <r>    -7.4974     1.6857     1.8233 </r>
       <r>    -7.4260     2.8767     2.0287 </r>
       <r>    -7.3546     3.7540     2.2968 </r>
       <r>    -7.2832     3.8053     2.5685 </r>
       <r>    -7.2118     3.5000     2.8184 </r>
       <r>    -7.1404     3.7313     3.0848 </r>
       <r>    -7.0690     4.6702     3.4182 </r>
       <r>    -6.9976     5.5019     3.8111 </r>
       <r>    -6.9262     5.2838     4.1884 </r>
       <r>    -6.8548     3.8905     4.4661 </r>
       <r>    -6.7834     2.1430     4.6192 </r>
       <r>    -6.7120     1.0788     4.6962 </r>
       <r>    -6.6406     1.0836     4.7736 </r>
       <r>    -6.5692     1.7197     4.8964 </r>
       <r>    -6.4978     2.4190     5.0691 </r>
       <r>    -6.4264     3.2237     5.2992 </r>
       <r>    -6.3550     4.5869     5.6268 </r>
       <r>    -6.2836     6.4384     6.0865 </r>
       <r>    -6.2122     7.7966     6.6432 </r>
       <r>    -6.1408     7.6384     7.1886 </r>
       <r>    -6.0694     6.1115     7.6249 </r>
       <r>    -5.9980     4.4957     7.9459 </r>
       <r>    -5.9266     3.8400     8.2201 </r>
       <r>    -5.8552     3.9642     8.5032 </r>
       <r>    -5.7838     3.9841     8.7876 </r>
       <r>    -5.7124     3.5982     9.0446 </r>
       <r>    -5.6410     3.4295     9.2894 </r>
       <r>    -5.5696     4.0932     9.5817 </r>
       <r>    -5.4982     5.6041     9.9818 </r>
       <r>    -5.4268     7.7649    10.5363 </r>
       <r>    -5.3554    10.1649    11.2620 </r>
       <r>    -5.2840    11.6785    12.0959 </r>
       <r>    -5.2126    11.0824    12.8872 </r>
       <r>    -5.1412     8.5102    13.4948 </r>
       <r>    -5.0698     5.7253    13.9036 </r>
       <r>    -4.9984     4.9405    14.2564 </r>
       <r>    -4.9270     7.3132    14.7786 </r>
       <r>    -4.8556    11.8578    15.6252 </r>
       <r>    -4.7842    15.9558    16.7645 </r>
       <r>    -4.7128    17.8988    18.0425 </r>
       <r>    -4.6414    18.5923    19.3700 </r>
       <r>    -4.5700    19.7589    20.7808 </r>
       <r>    -4.4986    21.2955    22.3014 </r>
       <r>    -4.4272    21.9185    23.8664 </r>
       <r>    -4.3557    21.8054    25.4233 </r>
       <r>    -4.2843    22.8592    27.0555 </r>
       <r>    -4.2129    26.4166    28.9417 </r>
       <r>    -4.1415    32.1379    31.2364 </r>
       <r>    -4.0701    39.2252    34.0371 </r>
       <r>    -3.9987    47.1332    37.4025 </r>
       <r>    -3.9273    54.4314    41.2890 </r>
       <r>    -3.8559    58.7713    45.4853 </r>
       <r>    -3.7845    59.6237    49.7425 </r>
       <r>    -3.7131    59.5416    53.9939 </r>
       <r>    -3.6417    60.7228    58.3296 </r>
       <r>    -3.5703    61.5916    62.7273 </r>
       <r>    -3.4989    58.9904    66.9393 </r>
       <r>    -3.4275    53.2488    70.7414 </r>
       <r>    -3.3561    49.1274    74.2491 </r>
       <r>    -3.2847    51.5282    77.9283 </r>
       <r>    -3.2133    61.3925    82.3118 </r>
       <r>    -3.1419    75.1998    87.6812 </r>
       <r>    -3.0705    86.9264    93.8879 </r>
       <r>    -2.9991    91.7236   100.4371 </r>
       <r>    -2.9277    89.7606   106.8461 </r>
       <r>    -2.8563    86.2743   113.0062 </r>
       <r>    -2.7849    87.7169   119.2693 </r>
       <r>    -2.7135    97.4828   126.2297 </r>
       <r>    -2.6421   113.1536   134.3091 </r>
       <r>    -2.5707   127.2056   143.3917 </r>
       <r>    -2.4993   132.1132   152.8248 </r>
       <r>    -2.4279   125.7846   161.8060 </r>
       <r>    -2.3565   112.1558   169.8141 </r>
       <r>    -2.2851    97.5233   176.7774 </r>
       <r>    -2.2137    87.3172   183.0120 </r>
       <r>    -2.1423    84.7993   189.0667 </r>
       <r>    -2.0709    90.1103   195.5007 </r>
       <r>    -1.9995   100.4336   202.6718 </r>
       <r>    -1.9281   112.0379   210.6715 </r>
       <r>    -1.8567   121.4599   219.3439 </r>
       <r>    -1.7853   125.2296   228.2855 </r>
       <r>    -1.7139   121.7044   236.9754 </r>
       <r>    -1.6425   114.4468   245.1470 </r>
       <r>    -1.5711   111.4928   253.1078 </r>
       <r>    -1.4997   119.1490   261.6152 </r>
       <r>    -1.4283   136.4295   271.3564 </r>
       <r>    -1.3569   156.2190   282.5107 </r>
       <r>    -1.2855   170.1892   294.6625 </r>
       <r>    -1.2141   170.4938   306.8360 </r>
       <r>    -1.1427   150.8514   317.6070 </r>
       <r>    -1.0713   112.3752   325.6307 </r>
       <r>    -0.9999    66.9583   330.4116 </r>
       <r>    -0.9285    29.8234   332.5411 </r>
       <r>    -0.8571     8.7506   333.1659 </r>
       <r>    -0.7857     2.2129   333.3239 </r>
       <r>    -0.7143     5.0315   333.6831 </r>
       <r>    -0.6429    12.0858   334.5461 </r>
       <r>    -0.5715    18.3168   335.8539 </r>
       <r>    -0.5001    19.8996   337.2748 </r>
       <r>    -0.4287    16.7978   338.4742 </r>
       <r>    -0.3573    12.3272   339.3543 </r>
       <r>    -0.2859     9.4700   340.0305 </r>
       <r>    -0.2145     8.6654   340.6492 </r>
       <r>    -0.1431     9.1517   341.3027 </r>
       <r>    -0.0717    10.4863   342.0514 </r>
       <r>    -0.0003    11.9480   342.9045 </r>
       <r>     0.0711    12.1448   343.7717 </r>
       <r>     0.1425    10.4472   344.5176 </r>
       <r>     0.2139     8.1232   345.0976 </r>
       <r>     0.2853     7.2538   345.6156 </r>
       <r>     0.3567     8.5334   346.2249 </r>
       <r>     0.4281    10.5414   346.9775 </r>
       <r>     0.4995    11.4523   347.7952 </r>
       <r>     0.5709    10.9109   348.5743 </r>
       <r>     0.6424     9.6456   349.2630 </r>
       <r>     0.7138     8.1692   349.8463 </r>
       <r>     0.7852     6.8458   350.3351 </r>
       <r>     0.8566     6.3420   350.7879 </r>
       <r>     0.9280     7.0946   351.2945 </r>
       <r>     0.9994     8.8943   351.9296 </r>
       <r>     1.0708    11.1925   352.7287 </r>
       <r>     1.1422    13.2034   353.6715 </r>
       <r>     1.2136    13.9632   354.6684 </r>
       <r>     1.2850    13.1840   355.6098 </r>
       <r>     1.3564    11.8415   356.4553 </r>
       <r>     1.4278    10.9563   357.2376 </r>
       <r>     1.4992    10.1573   357.9628 </r>
       <r>     1.5706     8.5728   358.5750 </r>
       <r>     1.6420     6.5693   359.0440 </r>
       <r>     1.7134     5.4840   359.4356 </r>
       <r>     1.7848     6.2255   359.8801 </r>
       <r>     1.8562     8.7445   360.5045 </r>
       <r>     1.9276    12.0760   361.3667 </r>
       <r>     1.9990    14.6889   362.4155 </r>
       <r>     2.0704    15.4915   363.5216 </r>
       <r>     2.1418    14.4314   364.5521 </r>
       <r>     2.2132    12.0896   365.4153 </r>
       <r>     2.2846     9.3436   366.0824 </r>
       <r>     2.3560     7.1690   366.5943 </r>
       <r>     2.4274     5.9868   367.0218 </r>
       <r>     2.4988     5.5986   367.4215 </r>
       <r>     2.5702     6.0737   367.8552 </r>
       <r>     2.6416     7.6963   368.4047 </r>
       <r>     2.7130     9.9017   369.1117 </r>
       <r>     2.7844    11.6474   369.9433 </r>
       <r>     2.8558    12.8070   370.8578 </r>
       <r>     2.9272    13.7184   371.8373 </r>
       <r>     2.9986    13.7472   372.8189 </r>
       <r>     3.0700    12.0142   373.6767 </r>
       <r>     3.1414     9.2551   374.3375 </r>
       <r>     3.2128     7.4574   374.8700 </r>
       <r>     3.2842     7.7004   375.4198 </r>
       <r>     3.3556     9.2339   376.0791 </r>
       <r>     3.4270    10.4737   376.8270 </r>
       <r>     3.4984    10.2988   377.5623 </r>
       <r>     3.5698     8.7225   378.1851 </r>
       <r>     3.6412     6.8331   378.6730 </r>
       <r>     3.7126     5.8696   379.0921 </r>
       <r>     3.7840     6.1229   379.5293 </r>
       <r>     3.8554     6.9758   380.0274 </r>
       <r>     3.9268     7.8833   380.5902 </r>
       <r>     3.9982     8.6949   381.2111 </r>
       <r>     4.0696     9.0320   381.8560 </r>
       <r>     4.1410     8.3546   382.4525 </r>
       <r>     4.2124     7.1976   382.9664 </r>
       <r>     4.2838     7.3043   383.4879 </r>
       <r>     4.3552     9.5168   384.1675 </r>
       <r>     4.4266    12.2711   385.0436 </r>
       <r>     4.4980    13.1474   385.9824 </r>
       <r>     4.5694    11.5144   386.8045 </r>
       <r>     4.6408     8.9221   387.4416 </r>
       <r>     4.7122     7.0780   387.9470 </r>
       <r>     4.7836     6.2898   388.3961 </r>
       <r>     4.8550     6.0976   388.8314 </r>
       <r>     4.9264     6.4718   389.2935 </r>
       <r>     4.9978     7.6650   389.8408 </r>
       <r>     5.0692     9.3388   390.5076 </r>
       <r>     5.1406    10.6331   391.2668 </r>
       <r>     5.2120    11.2781   392.0721 </r>
       <r>     5.2834    12.1333   392.9384 </r>
       <r>     5.3548    14.1477   393.9486 </r>
       <r>     5.4262    17.0364   395.1650 </r>
       <r>     5.4976    19.3945   396.5498 </r>
       <r>     5.5690    19.9067   397.9712 </r>
       <r>     5.6405    18.4309   399.2872 </r>
       <r>     5.7119    16.3092   400.4517 </r>
       <r>     5.7833    15.3465   401.5474 </r>
       <r>     5.8547    16.0046   402.6902 </r>
       <r>     5.9261    16.7306   403.8848 </r>
       <r>     5.9975    15.4566   404.9884 </r>
       <r>     6.0689    12.0995   405.8523 </r>
       <r>     6.1403     9.2123   406.5101 </r>
       <r>     6.2117     9.4775   407.1868 </r>
       <r>     6.2831    12.9883   408.1142 </r>
       <r>     6.3545    17.4253   409.3584 </r>
       <r>     6.4259    20.3098   410.8085 </r>
       <r>     6.4973    20.9209   412.3023 </r>
       <r>     6.5687    20.1595   413.7417 </r>
       <r>     6.6401    18.7802   415.0827 </r>
       <r>     6.7115    16.8599   416.2865 </r>
       <r>     6.7829    14.8233   417.3449 </r>
       <r>     6.8543    13.2567   418.2914 </r>
       <r>     6.9257    12.1031   419.1556 </r>
       <r>     6.9971    11.2130   419.9562 </r>
       <r>     7.0685    10.7659   420.7250 </r>
       <r>     7.1399    10.8437   421.4992 </r>
       <r>     7.2113    11.5164   422.3215 </r>
       <r>     7.2827    12.9019   423.2427 </r>
       <r>     7.3541    14.5787   424.2837 </r>
       <r>     7.4255    15.6970   425.4044 </r>
       <r>     7.4969    16.1300   426.5561 </r>
       <r>     7.5683    17.0778   427.7755 </r>
       <r>     7.6397    19.8493   429.1928 </r>
       <r>     7.7111    23.8917   430.8987 </r>
       <r>     7.7825    26.8050   432.8126 </r>
       <r>     7.8539    26.5755   434.7101 </r>
       <r>     7.9253    23.1639   436.3641 </r>
       <r>     7.9967    18.1174   437.6577 </r>
       <r>     8.0681    13.5340   438.6240 </r>
       <r>     8.1395    11.3205   439.4323 </r>
       <r>     8.2109    12.2932   440.3101 </r>
       <r>     8.2823    15.1093   441.3889 </r>
       <r>     8.3537    16.7584   442.5855 </r>
       <r>     8.4251    15.4839   443.6910 </r>
       <r>     8.4965    12.8496   444.6085 </r>
       <r>     8.5679    11.5279   445.4316 </r>
       <r>     8.6393    11.6638   446.2644 </r>
       <r>     8.7107    11.0430   447.0529 </r>
       <r>     8.7821     8.3186   447.6469 </r>
       <r>     8.8535     4.4967   447.9680 </r>
       <r>     8.9249     1.4121   448.0688 </r>
       <r>     8.9963    -0.1030   448.0614 </r>
       <r>     9.0677    -0.4237   448.0312 </r>
       <r>     9.1391    -0.2803   448.0112 </r>
       <r>     9.2105    -0.1146   448.0030 </r>
       <r>     9.2819    -0.0333   448.0006 </r>
       <r>     9.3533    -0.0071   448.0001 </r>
       <r>     9.4247    -0.0012   448.0000 </r>
       <r>     9.4961    -0.0001   448.0000 </r>
       <r>     9.5675    -0.0000   448.0000 </r>
       <r>     9.6389    -0.0000   448.0000 </r>
       <r>     9.7103    -0.0000   448.0000 </r>
       <r>     9.7817    -0.0000   448.0000 </r>
       <r>     9.8531    -0.0000   448.0000 </r>
       <r>     9.9245    -0.0000   448.0000 </r>
       <r>     9.9959    -0.0000   448.0000 </r>
       <r>    10.0673    -0.0000   448.0000 </r>
       <r>    10.1387     0.0000   448.0000 </r>
       <r>    10.2101     0.0000   448.0000 </r>
       <r>    10.2815     0.0000   448.0000 </r>
       <r>    10.3529     0.0000   448.0000 </r>
       <r>    10.4243     0.0000   448.0000 </r>
       <r>    10.4957     0.0000   448.0000 </r>
       <r>    10.5671     0.0000   448.0000 </r>
       <r>    10.6386     0.0000   448.0000 </r>
       <r>    10.7100     0.0000   448.0000 </r>
       <r>    10.7814     0.0000   448.0000 </r>
      </set>
     </set>
    </array>
   </total>
  </dos>
 </calculation>
 <structure name="finalpos" >
  <crystal>
   <varray name="basis" >
    <v>      10.89000034       0.00000000       0.00000000 </v>
    <v>       0.00000000       7.70039320       0.00000000 </v>
    <v>       0.00000000       0.00000000      22.70039300 </v>
   </varray>
   <i name="volume">   1903.59331612 </i>
   <varray name="rec_basis" >
    <v>       0.09182736       0.00000000       0.00000000 </v>
    <v>       0.00000000       0.12986350       0.00000000 </v>
    <v>       0.00000000       0.00000000       0.04405210 </v>
   </varray>
  </crystal>
  <varray name="positions" >
   <v>       0.00000000       0.00000000       0.00000000 </v>
   <v>       0.00000000       0.33333333       0.00000000 </v>
   <v>       0.00000000       0.66666667       0.00000000 </v>
   <v>       0.33333333       0.00000000       0.00000000 </v>
   <v>       0.33333333       0.33333333       0.00000000 </v>
   <v>       0.33333333       0.66666667       0.00000000 </v>
   <v>       0.66666667       0.00000000       0.00000000 </v>
   <v>       0.66666667       0.33333333       0.00000000 </v>
   <v>       0.66666667       0.66666667       0.00000000 </v>
   <v>       0.16666667       0.16666667       0.05653641 </v>
   <v>       0.16666667       0.50000000       0.05653641 </v>
   <v>       0.16666667       0.83333333       0.05653641 </v>
   <v>       0.50000000       0.16666667       0.05653641 </v>
   <v>       0.50000000       0.50000000       0.05653641 </v>
   <v>       0.50000000       0.83333333       0.05653641 </v>
   <v>       0.83333333       0.16666667       0.05653641 </v>
   <v>       0.83333333       0.50000000       0.05653641 </v>
   <v>       0.83333333       0.83333333       0.05653641 </v>
   <v>      -0.00000000       0.00000000       0.11107655 </v>
   <v>      -0.00000000       0.33333333       0.11107655 </v>
   <v>       0.00000000       0.66666667       0.11107655 </v>
   <v>       0.33333333       0.00000000       0.11107655 </v>
   <v>       0.33333333       0.33333333       0.11107655 </v>
   <v>       0.33333333       0.66666667       0.11107655 </v>
   <v>       0.66666667       0.00000000       0.11107655 </v>
   <v>       0.66666667       0.33333333       0.11107655 </v>
   <v>       0.66666667       0.66666667       0.11107655 </v>
   <v>       0.16666667       0.16666667       0.16659375 </v>
   <v>       0.16666667       0.50000000       0.16659375 </v>
   <v>       0.16666667       0.83333333       0.16659375 </v>
   <v>       0.50000000       0.16666667       0.16659375 </v>
   <v>       0.50000000       0.50000000       0.16659375 </v>
   <v>       0.50000000       0.83333333       0.16659375 </v>
   <v>       0.83333333       0.16666667       0.16659375 </v>
   <v>       0.83333333       0.50000000       0.16659375 </v>
   <v>       0.83333333       0.83333333       0.16659375 </v>
   <v>      -0.00000000       0.00000000       0.22068813 </v>
   <v>       0.00000000       0.33333333       0.22068813 </v>
   <v>      -0.00000000       0.66666667       0.22068813 </v>
   <v>       0.33333333       0.00000000       0.22068813 </v>
   <v>       0.33333333       0.33333333       0.22068813 </v>
   <v>       0.33333333       0.66666667       0.22068813 </v>
   <v>       0.66666667       0.00000000       0.22068813 </v>
   <v>       0.66666667       0.33333333       0.22068813 </v>
   <v>       0.66666667       0.66666667       0.22068813 </v>
   <v>       0.16666667       0.16666667       0.27826941 </v>
   <v>       0.16666667       0.50000000       0.27826941 </v>
   <v>       0.16666667       0.83333333       0.27826941 </v>
   <v>       0.50000000       0.16666667       0.27826941 </v>
   <v>       0.50000000       0.50000000       0.27826941 </v>
   <v>       0.50000000       0.83333333       0.27826941 </v>
   <v>       0.83333333       0.16666667       0.27826941 </v>
   <v>       0.83333333       0.50000000       0.27826941 </v>
   <v>       0.83333333       0.83333333       0.27826941 </v>
   <v>      -0.00000000       0.00000000       0.32883707 </v>
   <v>       0.00000000       0.33333333       0.32883707 </v>
   <v>      -0.00000000       0.66666667       0.32883707 </v>
   <v>       0.33333333       0.00000000       0.32883707 </v>
   <v>       0.33333333       0.33333333       0.32883707 </v>
   <v>       0.33333333       0.66666667       0.32883707 </v>
   <v>       0.66666667       0.00000000       0.32883707 </v>
   <v>       0.66666667       0.33333333       0.32883707 </v>
   <v>       0.66666667       0.66666667       0.32883707 </v>
  </varray>
  <varray name="selective"  type="logical" >
   <v type="logical" >  F  F  F </v>
   <v type="logical" >  F  F  F </v>
   <v type="logical" >  F  F  F </v>
   <v type="logical" >  F  F  F </v>
   <v type="logical" >  F  F  F </v>
   <v type="logical" >  F  F  F </v>
   <v type="logical" >  F  F  F </v>
   <v type="logical" >  F  F  F </v>
   <v type="logical" >  F  F  F </v>
   <v type="logical" >  F  F  F </v>
   <v type="logical" >  F  F  F </v>
   <v type="logical" >  F  F  F </v>
   <v type="logical" >  F  F  F </v>
   <v type="logical" >  F  F  F </v>
   <v type="logical" >  F  F  F </v>
   <v type="logical" >  F  F  F </v>
   <v type="logical" >  F  F  F </v>
   <v type="logical" >  F  F  F </v>
   <v type="logical" >  T  T  T </v>
   <v type="logical" >  T  T  T </v>
   <v type="logical" >  T  T  T </v>
   <v type="logical" >  T  T  T </v>
   <v type="logical" >  T  T  T </v>
   <v type="logical" >  T  T  T </v>
   <v type="logical" >  T  T  T </v>
   <v type="logical" >  T  T  T </v>
   <v type="logical" >  T  T  T </v>
   <v type="logical" >  T  T  T </v>
   <v type="logical" >  T  T  T </v>
   <v type="logical" >  T  T  T </v>
   <v type="logical" >  T  T  T </v>
   <v type="logical" >  T  T  T </v>
   <v type="logical" >  T  T  T </v>
   <v type="logical" >  T  T  T </v>
   <v type="logical" >  T  T  T </v>
   <v type="logical" >  T  T  T </v>
   <v type="logical" >  T  T  T </v>
   <v type="logical" >  T  T  T </v>
   <v type="logical" >  T  T  T </v>
   <v type="logical" >  T  T  T </v>
   <v type="logical" >  T  T  T </v>
   <v type="logical" >  T  T  T </v>
   <v type="logical" >  T  T  T </v>
   <v type="logical" >  T  T  T </v>
   <v type="logical" >  T  T  T </v>
   <v type="logical" >  T  T  T </v>
   <v type="logical" >  T  T  T </v>
   <v type="logical" >  T  T  T </v>
   <v type="logical" >  T  T  T </v>
   <v type="logical" >  T  T  T </v>
   <v type="logical" >  T  T  T </v>
   <v type="logical" >  T  T  T </v>
   <v type="logical" >  T  T  T </v>
   <v type="logical" >  T  T  T </v>
   <v type="logical" >  T  T  T </v>
   <v type="logical" >  T  T  T </v>
   <v type="logical" >  T  T  T </v>
   <v type="logical" >  T  T  T </v>
   <v type="logical" >  T  T  T </v>
   <v type="logical" >  T  T  T </v>
   <v type="logical" >  T  T  T </v>
   <v type="logical" >  T  T  T </v>
   <v type="logical" >  T  T  T </v>
  </varray>
  <nose>
   <v>      -3.00000000       0.00000000       0.00010000       0.00010000 </v>
  </nose>
 </structure>
</modeling>
