  10  10   0   0
  0.1692928E+02  0.2566798E-09  0.2566798E-09  0.2967047E-08  0.5000000E-15
  1.000000000000000E-004
  CAR 
 unknown system                          
     18.16051961     -8.76550766  301      2.01962480      1.00000000
     -8.766  0.0000E+00  0.0000E+00  0.0000E+00  0.0000E+00
     -8.676  0.0000E+00  0.0000E+00  0.0000E+00  0.0000E+00
     -8.586  0.0000E+00  0.0000E+00  0.0000E+00  0.0000E+00
     -8.496  0.0000E+00  0.0000E+00  0.0000E+00  0.0000E+00
     -8.406 -0.2075E-31 -0.2075E-31 -0.1862E-32 -0.1862E-32
     -8.317 -0.2529E-28 -0.2529E-28 -0.2272E-29 -0.2272E-29
     -8.227 -0.2055E-25 -0.2055E-25 -0.1846E-26 -0.1846E-26
     -8.137 -0.1111E-22 -0.1111E-22 -0.9994E-24 -0.9994E-24
     -8.047 -0.4000E-20 -0.4000E-20 -0.3600E-21 -0.3600E-21
     -7.958 -0.9572E-18 -0.9572E-18 -0.8627E-19 -0.8627E-19
     -7.868 -0.1472E-15 -0.1472E-15 -0.1329E-16 -0.1329E-16
     -7.778 -0.1542E-13 -0.1542E-13 -0.1398E-14 -0.1398E-14
     -7.688 -0.1068E-11 -0.1068E-11 -0.9726E-13 -0.9726E-13
     -7.599 -0.4871E-10 -0.4871E-10 -0.4469E-11 -0.4469E-11
     -7.509 -0.1456E-08 -0.1456E-08 -0.1351E-09 -0.1351E-09
     -7.419 -0.2828E-07 -0.2828E-07 -0.2673E-08 -0.2673E-08
     -7.329 -0.3523E-06 -0.3523E-06 -0.3429E-07 -0.3429E-07
     -7.240 -0.2746E-05 -0.2746E-05 -0.2807E-06 -0.2807E-06
     -7.150 -0.1265E-04 -0.1265E-04 -0.1416E-05 -0.1416E-05
     -7.060 -0.2883E-04 -0.2883E-04 -0.4004E-05 -0.4004E-05
     -6.970  0.1891E-05  0.1891E-05 -0.3834E-05 -0.3834E-05
     -6.881  0.1821E-03  0.1821E-03  0.1251E-04  0.1251E-04
     -6.791  0.4600E-03  0.4600E-03  0.5380E-04  0.5380E-04
     -6.701  0.5392E-03  0.5392E-03  0.1022E-03  0.1022E-03
     -6.611  0.3265E-03  0.3265E-03  0.1315E-03  0.1315E-03
     -6.522  0.1787E-03  0.1787E-03  0.1475E-03  0.1475E-03
     -6.432  0.3399E-03  0.3399E-03  0.1780E-03  0.1780E-03
     -6.342  0.5264E-03  0.5264E-03  0.2253E-03  0.2253E-03
     -6.252  0.4144E-03  0.4144E-03  0.2625E-03  0.2625E-03
     -6.163  0.2094E-03  0.2094E-03  0.2813E-03  0.2813E-03
     -6.073  0.2783E-03  0.2783E-03  0.3063E-03  0.3063E-03
     -5.983  0.4970E-03  0.4970E-03  0.3509E-03  0.3509E-03
     -5.893  0.4725E-03  0.4725E-03  0.3933E-03  0.3933E-03
     -5.804  0.2498E-03  0.2498E-03  0.4157E-03  0.4157E-03
     -5.714  0.2315E-03  0.2315E-03  0.4365E-03  0.4365E-03
     -5.624  0.4583E-03  0.4583E-03  0.4776E-03  0.4776E-03
     -5.534  0.5389E-03  0.5389E-03  0.5260E-03  0.5260E-03
     -5.445  0.3183E-03  0.3183E-03  0.5545E-03  0.5545E-03
     -5.355  0.6577E-04  0.6577E-04  0.5604E-03  0.5604E-03
     -5.265 -0.2784E-04 -0.2784E-04  0.5579E-03  0.5579E-03
     -5.175 -0.2900E-04 -0.2900E-04  0.5553E-03  0.5553E-03
     -5.086 -0.3028E-04 -0.3028E-04  0.5526E-03  0.5526E-03
     -4.996 -0.2162E-04 -0.2162E-04  0.5507E-03  0.5507E-03
     -4.906  0.1007E-03  0.1007E-03  0.5597E-03  0.5597E-03
     -4.816  0.3745E-03  0.3745E-03  0.5933E-03  0.5933E-03
     -4.727  0.5686E-03  0.5686E-03  0.6444E-03  0.6444E-03
     -4.637  0.4451E-03  0.4451E-03  0.6843E-03  0.6843E-03
     -4.547  0.1598E-03  0.1598E-03  0.6987E-03  0.6987E-03
     -4.457 -0.8589E-05 -0.8589E-05  0.6979E-03  0.6979E-03
     -4.368 -0.4912E-04 -0.4912E-04  0.6935E-03  0.6935E-03
     -4.278 -0.9935E-04 -0.9935E-04  0.6846E-03  0.6846E-03
     -4.188 -0.1819E-03 -0.1819E-03  0.6682E-03  0.6682E-03
     -4.098  0.3659E-04  0.3659E-04  0.6715E-03  0.6715E-03
     -4.009  0.1116E-02  0.1116E-02  0.7717E-03  0.7717E-03
     -3.919  0.2836E-02  0.2836E-02  0.1026E-02  0.1026E-02
     -3.829  0.4033E-02  0.4033E-02  0.1388E-02  0.1388E-02
     -3.739  0.4287E-02  0.4287E-02  0.1773E-02  0.1773E-02
     -3.650  0.3958E-02  0.3958E-02  0.2128E-02  0.2128E-02
     -3.560  0.3190E-02  0.3190E-02  0.2415E-02  0.2415E-02
     -3.470  0.2813E-02  0.2813E-02  0.2667E-02  0.2667E-02
     -3.380  0.3161E-02  0.3161E-02  0.2951E-02  0.2951E-02
     -3.291  0.2727E-02  0.2727E-02  0.3196E-02  0.3196E-02
     -3.201  0.1359E-02  0.1359E-02  0.3318E-02  0.3318E-02
     -3.111  0.1230E-02  0.1230E-02  0.3428E-02  0.3428E-02
     -3.021  0.2866E-02  0.2866E-02  0.3685E-02  0.3685E-02
     -2.932  0.3778E-02  0.3778E-02  0.4024E-02  0.4024E-02
     -2.842  0.2412E-02  0.2412E-02  0.4241E-02  0.4241E-02
     -2.752  0.7268E-03  0.7268E-03  0.4306E-02  0.4306E-02
     -2.662  0.1216E-02  0.1216E-02  0.4415E-02  0.4415E-02
     -2.573  0.3464E-02  0.3464E-02  0.4726E-02  0.4726E-02
     -2.483  0.4733E-02  0.4733E-02  0.5151E-02  0.5151E-02
     -2.393  0.3779E-02  0.3779E-02  0.5490E-02  0.5490E-02
     -2.303  0.2541E-02  0.2541E-02  0.5718E-02  0.5718E-02
     -2.214  0.2729E-02  0.2729E-02  0.5963E-02  0.5963E-02
     -2.124  0.3133E-02  0.3133E-02  0.6244E-02  0.6244E-02
     -2.034  0.2346E-02  0.2346E-02  0.6455E-02  0.6455E-02
     -1.944  0.1641E-02  0.1641E-02  0.6602E-02  0.6602E-02
     -1.854  0.2303E-02  0.2303E-02  0.6809E-02  0.6809E-02
     -1.765  0.3834E-02  0.3834E-02  0.7153E-02  0.7153E-02
     -1.675  0.6779E-02  0.6779E-02  0.7761E-02  0.7761E-02
     -1.585  0.1207E-01  0.1207E-01  0.8844E-02  0.8844E-02
     -1.495  0.1737E-01  0.1737E-01  0.1040E-01  0.1040E-01
     -1.406  0.1857E-01  0.1857E-01  0.1207E-01  0.1207E-01
     -1.316  0.1485E-01  0.1485E-01  0.1340E-01  0.1340E-01
     -1.226  0.1020E-01  0.1020E-01  0.1432E-01  0.1432E-01
     -1.136  0.8002E-02  0.8002E-02  0.1504E-01  0.1504E-01
     -1.047  0.7338E-02  0.7338E-02  0.1570E-01  0.1570E-01
     -0.957  0.6484E-02  0.6484E-02  0.1628E-01  0.1628E-01
     -0.867  0.6142E-02  0.6142E-02  0.1683E-01  0.1683E-01
     -0.777  0.8156E-02  0.8156E-02  0.1756E-01  0.1756E-01
     -0.688  0.1203E-01  0.1203E-01  0.1864E-01  0.1864E-01
     -0.598  0.1538E-01  0.1538E-01  0.2002E-01  0.2002E-01
     -0.508  0.1844E-01  0.1844E-01  0.2168E-01  0.2168E-01
     -0.418  0.2179E-01  0.2179E-01  0.2363E-01  0.2363E-01
     -0.329  0.2218E-01  0.2218E-01  0.2562E-01  0.2562E-01
     -0.239  0.1792E-01  0.1792E-01  0.2723E-01  0.2723E-01
     -0.149  0.1262E-01  0.1262E-01  0.2836E-01  0.2836E-01
     -0.059  0.9915E-02  0.9915E-02  0.2925E-01  0.2925E-01
      0.030  0.1038E-01  0.1038E-01  0.3019E-01  0.3019E-01
      0.120  0.1304E-01  0.1304E-01  0.3136E-01  0.3136E-01
      0.210  0.1617E-01  0.1617E-01  0.3281E-01  0.3281E-01
      0.300  0.1834E-01  0.1834E-01  0.3445E-01  0.3445E-01
      0.389  0.1894E-01  0.1894E-01  0.3615E-01  0.3615E-01
      0.479  0.1901E-01  0.1901E-01  0.3786E-01  0.3786E-01
      0.569  0.2108E-01  0.2108E-01  0.3975E-01  0.3975E-01
      0.659  0.2533E-01  0.2533E-01  0.4203E-01  0.4203E-01
      0.748  0.2836E-01  0.2836E-01  0.4457E-01  0.4457E-01
      0.838  0.2707E-01  0.2707E-01  0.4700E-01  0.4700E-01
      0.928  0.2201E-01  0.2201E-01  0.4898E-01  0.4898E-01
      1.018  0.1760E-01  0.1760E-01  0.5056E-01  0.5056E-01
      1.107  0.1689E-01  0.1689E-01  0.5207E-01  0.5207E-01
      1.197  0.1681E-01  0.1681E-01  0.5358E-01  0.5358E-01
      1.287  0.1327E-01  0.1327E-01  0.5477E-01  0.5477E-01
      1.377  0.7261E-02  0.7261E-02  0.5542E-01  0.5542E-01
      1.466  0.2269E-02  0.2269E-02  0.5563E-01  0.5563E-01
      1.556 -0.1264E-03 -0.1264E-03  0.5561E-01  0.5561E-01
      1.646 -0.6234E-03 -0.6234E-03  0.5556E-01  0.5556E-01
      1.736 -0.2655E-03 -0.2655E-03  0.5553E-01  0.5553E-01
      1.825  0.9221E-03  0.9221E-03  0.5562E-01  0.5562E-01
      1.915  0.2776E-02  0.2776E-02  0.5587E-01  0.5587E-01
      2.005  0.3716E-02  0.3716E-02  0.5620E-01  0.5620E-01
      2.095  0.2721E-02  0.2721E-02  0.5644E-01  0.5644E-01
      2.184  0.1080E-02  0.1080E-02  0.5654E-01  0.5654E-01
      2.274  0.3268E-03  0.3268E-03  0.5657E-01  0.5657E-01
      2.364  0.3905E-03  0.3905E-03  0.5661E-01  0.5661E-01
      2.454  0.4534E-03  0.4534E-03  0.5665E-01  0.5665E-01
      2.543  0.2373E-03  0.2373E-03  0.5667E-01  0.5667E-01
      2.633 -0.1448E-04 -0.1448E-04  0.5667E-01  0.5667E-01
      2.723 -0.1735E-03 -0.1735E-03  0.5665E-01  0.5665E-01
      2.813 -0.1432E-03 -0.1432E-03  0.5664E-01  0.5664E-01
      2.902  0.5897E-03  0.5897E-03  0.5669E-01  0.5669E-01
      2.992  0.2230E-02  0.2230E-02  0.5689E-01  0.5689E-01
      3.082  0.3408E-02  0.3408E-02  0.5720E-01  0.5720E-01
      3.172  0.2684E-02  0.2684E-02  0.5744E-01  0.5744E-01
      3.261  0.9751E-03  0.9751E-03  0.5753E-01  0.5753E-01
      3.351 -0.2848E-04 -0.2848E-04  0.5752E-01  0.5752E-01
      3.441 -0.1679E-03 -0.1679E-03  0.5751E-01  0.5751E-01
      3.531 -0.6863E-04 -0.6863E-04  0.5750E-01  0.5750E-01
      3.620 -0.1424E-04 -0.1424E-04  0.5750E-01  0.5750E-01
      3.710 -0.1818E-05 -0.1818E-05  0.5750E-01  0.5750E-01
      3.800 -0.9974E-06 -0.9974E-06  0.5750E-01  0.5750E-01
      3.890 -0.8047E-05 -0.8047E-05  0.5750E-01  0.5750E-01
      3.979 -0.4563E-04 -0.4563E-04  0.5750E-01  0.5750E-01
      4.069 -0.1412E-03 -0.1412E-03  0.5748E-01  0.5748E-01
      4.159 -0.1318E-03 -0.1318E-03  0.5747E-01  0.5747E-01
      4.249  0.5624E-03  0.5624E-03  0.5752E-01  0.5752E-01
      4.338  0.2186E-02  0.2186E-02  0.5772E-01  0.5772E-01
      4.428  0.3400E-02  0.3400E-02  0.5802E-01  0.5802E-01
      4.518  0.2723E-02  0.2723E-02  0.5827E-01  0.5827E-01
      4.608  0.1014E-02  0.1014E-02  0.5836E-01  0.5836E-01
      4.698 -0.1636E-04 -0.1636E-04  0.5836E-01  0.5836E-01
      4.787 -0.1696E-03 -0.1696E-03  0.5834E-01  0.5834E-01
      4.877 -0.7087E-04 -0.7087E-04  0.5833E-01  0.5833E-01
      4.967 -0.1491E-04 -0.1491E-04  0.5833E-01  0.5833E-01
      5.057 -0.1897E-05 -0.1897E-05  0.5833E-01  0.5833E-01
      5.146 -0.6777E-06 -0.6777E-06  0.5833E-01  0.5833E-01
      5.236 -0.5547E-05 -0.5547E-05  0.5833E-01  0.5833E-01
      5.326 -0.3632E-04 -0.3632E-04  0.5833E-01  0.5833E-01
      5.416 -0.1423E-03 -0.1423E-03  0.5832E-01  0.5832E-01
      5.505 -0.2795E-03 -0.2795E-03  0.5829E-01  0.5829E-01
      5.595  0.4644E-04  0.4644E-04  0.5830E-01  0.5830E-01
      5.685  0.1731E-02  0.1731E-02  0.5845E-01  0.5845E-01
      5.775  0.4838E-02  0.4838E-02  0.5889E-01  0.5889E-01
      5.864  0.7533E-02  0.7533E-02  0.5956E-01  0.5956E-01
      5.954  0.7414E-02  0.7414E-02  0.6023E-01  0.6023E-01
      6.044  0.4562E-02  0.4562E-02  0.6064E-01  0.6064E-01
      6.134  0.1929E-02  0.1929E-02  0.6081E-01  0.6081E-01
      6.223  0.1357E-02  0.1357E-02  0.6093E-01  0.6093E-01
      6.313  0.1656E-02  0.1656E-02  0.6108E-01  0.6108E-01
      6.403  0.1418E-02  0.1418E-02  0.6121E-01  0.6121E-01
      6.493  0.8558E-03  0.8556E-03  0.6128E-01  0.6128E-01
      6.582  0.5359E-03  0.5358E-03  0.6133E-01  0.6133E-01
      6.672  0.3153E-03  0.3154E-03  0.6136E-01  0.6136E-01
      6.762  0.8560E-04  0.8570E-04  0.6137E-01  0.6137E-01
      6.852  0.3316E-03  0.3317E-03  0.6140E-01  0.6140E-01
      6.941  0.1556E-02  0.1556E-02  0.6154E-01  0.6154E-01
      7.031  0.3518E-02  0.3518E-02  0.6185E-01  0.6185E-01
      7.121  0.4839E-02  0.4838E-02  0.6229E-01  0.6229E-01
      7.211  0.4162E-02  0.4162E-02  0.6266E-01  0.6266E-01
      7.300  0.2140E-02  0.2140E-02  0.6285E-01  0.6285E-01
      7.390  0.5481E-03  0.5481E-03  0.6290E-01  0.6290E-01
      7.480  0.2093E-03  0.2094E-03  0.6292E-01  0.6292E-01
      7.570  0.1111E-02  0.1111E-02  0.6302E-01  0.6302E-01
      7.659  0.2502E-02  0.2502E-02  0.6325E-01  0.6325E-01
      7.749  0.2958E-02  0.2958E-02  0.6351E-01  0.6351E-01
      7.839  0.1971E-02  0.1971E-02  0.6369E-01  0.6369E-01
      7.929  0.5771E-03  0.5771E-03  0.6374E-01  0.6374E-01
      8.018  0.9064E-04  0.9063E-04  0.6375E-01  0.6375E-01
      8.108  0.1073E-02  0.1073E-02  0.6384E-01  0.6384E-01
      8.198  0.2783E-02  0.2783E-02  0.6409E-01  0.6409E-01
      8.288  0.3551E-02  0.3551E-02  0.6441E-01  0.6441E-01
      8.377  0.3074E-02  0.3074E-02  0.6469E-01  0.6469E-01
      8.467  0.2839E-02  0.2839E-02  0.6494E-01  0.6494E-01
      8.557  0.3090E-02  0.3090E-02  0.6522E-01  0.6522E-01
      8.647  0.2514E-02  0.2514E-02  0.6545E-01  0.6545E-01
      8.736  0.1197E-02  0.1197E-02  0.6555E-01  0.6555E-01
      8.826  0.6719E-03  0.6719E-03  0.6561E-01  0.6561E-01
      8.916  0.1702E-02  0.1702E-02  0.6577E-01  0.6577E-01
      9.006  0.3416E-02  0.3416E-02  0.6607E-01  0.6607E-01
      9.095  0.3983E-02  0.3983E-02  0.6643E-01  0.6643E-01
      9.185  0.2913E-02  0.2913E-02  0.6669E-01  0.6669E-01
      9.275  0.2057E-02  0.2057E-02  0.6688E-01  0.6688E-01
      9.365  0.2679E-02  0.2679E-02  0.6712E-01  0.6712E-01
      9.454  0.3474E-02  0.3474E-02  0.6743E-01  0.6743E-01
      9.544  0.3255E-02  0.3255E-02  0.6772E-01  0.6772E-01
      9.634  0.2854E-02  0.2854E-02  0.6798E-01  0.6798E-01
      9.724  0.2885E-02  0.2885E-02  0.6824E-01  0.6824E-01
      9.813  0.2822E-02  0.2822E-02  0.6849E-01  0.6849E-01
      9.903  0.2697E-02  0.2697E-02  0.6873E-01  0.6873E-01
      9.993  0.3023E-02  0.3023E-02  0.6900E-01  0.6900E-01
     10.083  0.3464E-02  0.3464E-02  0.6931E-01  0.6931E-01
     10.172  0.3223E-02  0.3223E-02  0.6960E-01  0.6960E-01
     10.262  0.2444E-02  0.2444E-02  0.6982E-01  0.6982E-01
     10.352  0.2339E-02  0.2339E-02  0.7003E-01  0.7003E-01
     10.442  0.3356E-02  0.3355E-02  0.7033E-01  0.7033E-01
     10.531  0.4065E-02  0.4065E-02  0.7070E-01  0.7070E-01
     10.621  0.3090E-02  0.3090E-02  0.7098E-01  0.7098E-01
     10.711  0.1391E-02  0.1391E-02  0.7110E-01  0.7110E-01
     10.801  0.1245E-02  0.1245E-02  0.7121E-01  0.7121E-01
     10.890  0.2888E-02  0.2887E-02  0.7147E-01  0.7147E-01
     10.980  0.3832E-02  0.3832E-02  0.7182E-01  0.7182E-01
     11.070  0.2573E-02  0.2573E-02  0.7205E-01  0.7205E-01
     11.160  0.6505E-03  0.6507E-03  0.7211E-01  0.7211E-01
     11.250 -0.1907E-03 -0.1907E-03  0.7209E-01  0.7209E-01
     11.339  0.1046E-03  0.1045E-03  0.7210E-01  0.7210E-01
     11.429  0.1060E-02  0.1060E-02  0.7219E-01  0.7219E-01
     11.519  0.2411E-02  0.2411E-02  0.7241E-01  0.7241E-01
     11.609  0.3698E-02  0.3698E-02  0.7274E-01  0.7274E-01
     11.698  0.4161E-02  0.4161E-02  0.7311E-01  0.7311E-01
     11.788  0.3538E-02  0.3538E-02  0.7343E-01  0.7343E-01
     11.878  0.2408E-02  0.2408E-02  0.7365E-01  0.7365E-01
     11.968  0.1942E-02  0.1942E-02  0.7382E-01  0.7382E-01
     12.057  0.2721E-02  0.2721E-02  0.7407E-01  0.7407E-01
     12.147  0.3266E-02  0.3266E-02  0.7436E-01  0.7436E-01
     12.237  0.2202E-02  0.2203E-02  0.7456E-01  0.7456E-01
     12.327  0.6153E-03  0.6156E-03  0.7461E-01  0.7461E-01
     12.416 -0.1190E-03 -0.1189E-03  0.7460E-01  0.7460E-01
     12.506 -0.1472E-03 -0.1472E-03  0.7459E-01  0.7459E-01
     12.596 -0.4976E-04 -0.4978E-04  0.7458E-01  0.7458E-01
     12.686 -0.9300E-05 -0.9304E-05  0.7458E-01  0.7458E-01
     12.775 -0.2990E-05 -0.2990E-05  0.7458E-01  0.7458E-01
     12.865 -0.1090E-04 -0.1090E-04  0.7458E-01  0.7458E-01
     12.955 -0.3321E-04 -0.3321E-04  0.7458E-01  0.7458E-01
     13.045 -0.3608E-04 -0.3608E-04  0.7458E-01  0.7458E-01
     13.134  0.1068E-03  0.1068E-03  0.7459E-01  0.7459E-01
     13.224  0.4939E-03  0.4938E-03  0.7463E-01  0.7463E-01
     13.314  0.9168E-03  0.9167E-03  0.7471E-01  0.7471E-01
     13.404  0.9707E-03  0.9707E-03  0.7480E-01  0.7480E-01
     13.493  0.5972E-03  0.5973E-03  0.7485E-01  0.7485E-01
     13.583  0.1714E-03  0.1714E-03  0.7487E-01  0.7487E-01
     13.673 -0.2314E-04 -0.2312E-04  0.7487E-01  0.7487E-01
     13.763 -0.3834E-04 -0.3834E-04  0.7486E-01  0.7486E-01
     13.852 -0.1460E-04 -0.1461E-04  0.7486E-01  0.7486E-01
     13.942 -0.3000E-05 -0.3001E-05  0.7486E-01  0.7486E-01
     14.032 -0.3751E-06 -0.3752E-06  0.7486E-01  0.7486E-01
     14.122 -0.2972E-07 -0.2974E-07  0.7486E-01  0.7486E-01
     14.211 -0.1521E-08 -0.1522E-08  0.7486E-01  0.7486E-01
     14.301 -0.5082E-10 -0.5086E-10  0.7486E-01  0.7486E-01
     14.391 -0.1115E-11 -0.1116E-11  0.7486E-01  0.7486E-01
     14.481 -0.1613E-13 -0.1615E-13  0.7486E-01  0.7486E-01
     14.570 -0.1546E-15 -0.1546E-15  0.7486E-01  0.7486E-01
     14.660 -0.1031E-17 -0.1031E-17  0.7486E-01  0.7486E-01
     14.750 -0.7644E-24 -0.7637E-24  0.7486E-01  0.7486E-01
     14.840 -0.3283E-21 -0.3280E-21  0.7486E-01  0.7486E-01
     14.929 -0.9376E-19 -0.9368E-19  0.7486E-01  0.7486E-01
     15.019 -0.1728E-16 -0.1727E-16  0.7486E-01  0.7486E-01
     15.109 -0.2162E-14 -0.2160E-14  0.7486E-01  0.7486E-01
     15.199 -0.1792E-12 -0.1791E-12  0.7486E-01  0.7486E-01
     15.288 -0.9798E-11 -0.9792E-11  0.7486E-01  0.7486E-01
     15.378 -0.3519E-09 -0.3517E-09  0.7486E-01  0.7486E-01
     15.468 -0.8249E-08 -0.8246E-08  0.7486E-01  0.7486E-01
     15.558 -0.1249E-06 -0.1248E-06  0.7486E-01  0.7486E-01
     15.647 -0.1198E-05 -0.1197E-05  0.7486E-01  0.7486E-01
     15.737 -0.7004E-05 -0.7002E-05  0.7486E-01  0.7486E-01
     15.827 -0.2256E-04 -0.2256E-04  0.7486E-01  0.7486E-01
     15.917 -0.2396E-04 -0.2397E-04  0.7486E-01  0.7486E-01
     16.006  0.8261E-04  0.8258E-04  0.7486E-01  0.7486E-01
     16.096  0.3480E-03  0.3480E-03  0.7489E-01  0.7489E-01
     16.186  0.5630E-03  0.5630E-03  0.7495E-01  0.7495E-01
     16.276  0.4677E-03  0.4678E-03  0.7499E-01  0.7499E-01
     16.365  0.1835E-03  0.1835E-03  0.7500E-01  0.7500E-01
     16.455  0.2026E-05  0.2040E-05  0.7500E-01  0.7500E-01
     16.545 -0.2882E-04 -0.2882E-04  0.7500E-01  0.7500E-01
     16.635 -0.1265E-04 -0.1265E-04  0.7500E-01  0.7500E-01
     16.724 -0.2745E-05 -0.2746E-05  0.7500E-01  0.7500E-01
     16.814 -0.3522E-06 -0.3523E-06  0.7500E-01  0.7500E-01
     16.904 -0.2826E-07 -0.2828E-07  0.7500E-01  0.7500E-01
     16.994 -0.1455E-08 -0.1456E-08  0.7500E-01  0.7500E-01
     17.083 -0.4868E-10 -0.4871E-10  0.7500E-01  0.7500E-01
     17.173 -0.1067E-11 -0.1068E-11  0.7500E-01  0.7500E-01
     17.263 -0.1541E-13 -0.1542E-13  0.7500E-01  0.7500E-01
     17.353 -0.1471E-15 -0.1471E-15  0.7500E-01  0.7500E-01
     17.442 -0.1031E-17 -0.1031E-17  0.7500E-01  0.7500E-01
     17.532  0.0000E+00  0.0000E+00  0.7500E-01  0.7500E-01
     17.622  0.0000E+00  0.0000E+00  0.7500E-01  0.7500E-01
     17.712  0.0000E+00  0.0000E+00  0.7500E-01  0.7500E-01
     17.802  0.0000E+00  0.0000E+00  0.7500E-01  0.7500E-01
     17.891  0.0000E+00  0.0000E+00  0.7500E-01  0.7500E-01
     17.981  0.0000E+00  0.0000E+00  0.7500E-01  0.7500E-01
     18.071  0.0000E+00  0.0000E+00  0.7500E-01  0.7500E-01
     18.161  0.0000E+00  0.0000E+00  0.7500E-01  0.7500E-01
