   10   10  800    2
  0.1692928E+02  0.2566798E-09  0.2566798E-09  0.2967047E-08  0.5000000E-15
  1.000000000000000E-004
  CAR 
 unknown system                          
     90      4     60
 
  0.0000000E+00  0.0000000E+00  0.0000000E+00  0.1111111E+00
      1         -6.765508       -6.765508   1.000000   1.000000
      2         -6.373963       -6.373963   1.000000   1.000000
      3         -5.989875       -5.989875   1.000000   1.000000
      4         -5.606442       -5.606442   1.000000   1.000000
      5         -4.760091       -4.760091   1.000000   1.000000
      6         -3.818478       -3.818478   1.000000   1.000000
      7         -3.005052       -3.005052   1.000000   1.000000
      8         -2.564551       -2.564551   1.000000   1.000000
      9         -2.490058       -2.490058   1.000000   1.000000
     10         -0.629369       -0.629369   1.000000   1.000000
     11         -0.605118       -0.605118   1.000000   1.000000
     12         -0.495039       -0.495039   1.000000   1.000000
     13         -0.493917       -0.493917   1.000000   1.000000
     14         -0.488404       -0.488404   1.000000   1.000000
     15         -0.488396       -0.488396   1.000000   1.000000
     16         -0.457567       -0.457567   1.000000   1.000000
     17         -0.419728       -0.419728   1.000000   1.000000
     18         -0.419059       -0.419059   1.000000   1.000000
     19         -0.396026       -0.396026   1.000000   1.000000
     20         -0.395990       -0.395990   1.000000   1.000000
     21         -0.370601       -0.370601   1.000000   1.000000
     22         -0.323295       -0.323295   1.000000   1.000000
     23         -0.323292       -0.323292   1.000000   1.000000
     24         -0.296027       -0.296027   1.000000   1.000000
     25         -0.295365       -0.295365   1.000000   1.000000
     26         -0.143590       -0.143590   1.000000   1.000000
     27          0.072178        0.072178   1.000000   1.000000
     28          0.100642        0.100642   1.000000   1.000000
     29          0.103818        0.103818   1.000000   1.000000
     30          0.155957        0.155957   1.000000   1.000000
     31          0.158895        0.158895   1.000000   1.000000
     32          0.352567        0.352567   1.000000   1.000000
     33          0.355546        0.355546   1.000000   1.000000
     34          0.357100        0.357100   1.000000   1.000000
     35          0.361763        0.361763   1.000000   1.000000
     36          0.483522        0.483522   1.000000   1.000000
     37          0.488198        0.488198   1.000000   1.000000
     38          0.609745        0.609745   1.000000   1.000000
     39          0.611675        0.611675   1.000000   1.000000
     40          0.707342        0.707342   1.000000   1.000000
     41          0.710341        0.710341   1.000000   1.000000
     42          0.756763        0.756763   1.000000   1.000000
     43          0.868610        0.868611   1.000000   1.000000
     44          0.872136        0.872136   1.000000   1.000000
     45          1.111081        1.111081   1.000000   1.000000
     46          1.114188        1.114188   1.000000   1.000000
     47          1.187899        1.187899   1.000000   1.000000
     48          1.190570        1.190570   1.000000   1.000000
     49          2.074109        2.074110   0.278668   0.278668
     50          2.365077        2.365077  -0.017376  -0.017376
     51          5.844824        5.844835  -0.000000  -0.000000
     52          6.574025        6.574056  -0.000000  -0.000000
     53          7.310736        7.310757  -0.000000  -0.000000
     54          8.238330        8.238341   0.000000   0.000000
     55          8.843883        8.843908   0.000000   0.000000
     56         10.544151       10.544167   0.000000   0.000000
     57         10.885952       10.885967   0.000000   0.000000
     58         13.268199       13.268211   0.000000   0.000000
     59         13.379011       13.379028   0.000000   0.000000
     60         16.160506       16.160520   0.000000   0.000000
 
  0.3333333E+00  0.5551115E-16  0.0000000E+00  0.4444444E+00
      1         -3.920921       -3.920921   1.000000   1.000000
      2         -3.664610       -3.664610   1.000000   1.000000
      3         -3.386085       -3.386085   1.000000   1.000000
      4         -2.982972       -2.982972   1.000000   1.000000
      5         -2.549216       -2.549216   1.000000   1.000000
      6         -2.166432       -2.166432   1.000000   1.000000
      7         -1.839032       -1.839032   1.000000   1.000000
      8         -1.649908       -1.649908   1.000000   1.000000
      9         -1.583772       -1.583772   1.000000   1.000000
     10         -1.490213       -1.490213   1.000000   1.000000
     11         -1.417840       -1.417840   1.000000   1.000000
     12         -1.198191       -1.198191   1.000000   1.000000
     13         -1.004096       -1.004096   1.000000   1.000000
     14         -0.853926       -0.853926   1.000000   1.000000
     15         -0.683119       -0.683119   1.000000   1.000000
     16         -0.674673       -0.674673   1.000000   1.000000
     17         -0.533928       -0.533928   1.000000   1.000000
     18         -0.459129       -0.459129   1.000000   1.000000
     19         -0.426261       -0.426261   1.000000   1.000000
     20         -0.342360       -0.342360   1.000000   1.000000
     21         -0.312610       -0.312610   1.000000   1.000000
     22         -0.234410       -0.234410   1.000000   1.000000
     23         -0.118829       -0.118829   1.000000   1.000000
     24         -0.079931       -0.079931   1.000000   1.000000
     25          0.064368        0.064368   1.000000   1.000000
     26          0.172116        0.172116   1.000000   1.000000
     27          0.290586        0.290586   1.000000   1.000000
     28          0.372811        0.372811   1.000000   1.000000
     29          0.446109        0.446109   1.000000   1.000000
     30          0.525004        0.525004   1.000000   1.000000
     31          0.527559        0.527559   1.000000   1.000000
     32          0.611415        0.611415   1.000000   1.000000
     33          0.627353        0.627353   1.000000   1.000000
     34          0.679756        0.679756   1.000000   1.000000
     35          0.694587        0.694587   1.000000   1.000000
     36          0.754853        0.754853   1.000000   1.000000
     37          0.789856        0.789856   1.000000   1.000000
     38          0.795350        0.795350   1.000000   1.000000
     39          0.879521        0.879521   1.000000   1.000000
     40          0.913099        0.913099   1.000000   1.000000
     41          1.076944        1.076944   1.000000   1.000000
     42          1.145992        1.145992   1.000000   1.000000
     43          1.150094        1.150094   1.000000   1.000000
     44          1.233213        1.233213   1.000000   1.000000
     45          1.319148        1.319148   1.000004   1.000004
     46          1.945375        1.945375   0.791462   0.791462
     47          3.047059        3.047059  -0.000000  -0.000000
     48          4.396055        4.396055  -0.000000  -0.000000
     49          5.894808        5.894808  -0.000000  -0.000000
     50          7.126653        7.126653  -0.000000  -0.000000
     51          8.509186        8.509189   0.000000   0.000000
     52          9.026085        9.026086   0.000000   0.000000
     53          9.384692        9.384694   0.000000   0.000000
     54          9.709947        9.709960   0.000000   0.000000
     55         10.154975       10.154999   0.000000   0.000000
     56         10.536642       10.536658   0.000000   0.000000
     57         10.933336       10.933343   0.000000   0.000000
     58         11.601451       11.601452   0.000000   0.000000
     59         11.797629       11.797638   0.000000   0.000000
     60         12.097583       12.097604   0.000000   0.000000
 
  0.0000000E+00  0.3333333E+00  0.0000000E+00  0.2222222E+00
      1         -3.847691       -3.847691   1.000000   1.000000
      2         -3.660519       -3.660518   1.000000   1.000000
      3         -3.381658       -3.381658   1.000000   1.000000
      4         -2.981482       -2.981482   1.000000   1.000000
      5         -2.548493       -2.548493   1.000000   1.000000
      6         -2.164472       -2.164472   1.000000   1.000000
      7         -1.834713       -1.834713   1.000000   1.000000
      8         -1.647793       -1.647793   1.000000   1.000000
      9         -1.580434       -1.580434   1.000000   1.000000
     10         -1.483752       -1.483752   1.000000   1.000000
     11         -1.417213       -1.417213   1.000000   1.000000
     12         -1.197819       -1.197819   1.000000   1.000000
     13         -1.003378       -1.003378   1.000000   1.000000
     14         -0.853750       -0.853750   1.000000   1.000000
     15         -0.683787       -0.683787   1.000000   1.000000
     16         -0.676612       -0.676612   1.000000   1.000000
     17         -0.530814       -0.530814   1.000000   1.000000
     18         -0.453924       -0.453924   1.000000   1.000000
     19         -0.432561       -0.432561   1.000000   1.000000
     20         -0.344128       -0.344128   1.000000   1.000000
     21         -0.308228       -0.308228   1.000000   1.000000
     22         -0.241794       -0.241794   1.000000   1.000000
     23         -0.123483       -0.123483   1.000000   1.000000
     24         -0.078670       -0.078670   1.000000   1.000000
     25          0.054594        0.054594   1.000000   1.000000
     26          0.171364        0.171364   1.000000   1.000000
     27          0.279759        0.279759   1.000000   1.000000
     28          0.371193        0.371193   1.000000   1.000000
     29          0.435756        0.435756   1.000000   1.000000
     30          0.517954        0.517954   1.000000   1.000000
     31          0.528590        0.528590   1.000000   1.000000
     32          0.610046        0.610046   1.000000   1.000000
     33          0.629055        0.629055   1.000000   1.000000
     34          0.677733        0.677733   1.000000   1.000000
     35          0.694872        0.694872   1.000000   1.000000
     36          0.754703        0.754703   1.000000   1.000000
     37          0.791087        0.791087   1.000000   1.000000
     38          0.798047        0.798047   1.000000   1.000000
     39          0.880149        0.880149   1.000000   1.000000
     40          0.913928        0.913928   1.000000   1.000000
     41          1.075906        1.075906   1.000000   1.000000
     42          1.144872        1.144872   1.000000   1.000000
     43          1.147795        1.147795   1.000000   1.000000
     44          1.232790        1.232790   1.000000   1.000000
     45          1.319043        1.319043   1.000004   1.000004
     46          1.946875        1.946875   0.786416   0.786416
     47          3.053701        3.053701  -0.000000  -0.000000
     48          4.401446        4.401446  -0.000000  -0.000000
     49          5.898786        5.898786  -0.000000  -0.000000
     50          7.114082        7.114082  -0.000000  -0.000000
     51          8.299669        8.299670   0.000000   0.000000
     52          9.004057        9.004059   0.000000   0.000000
     53          9.422277        9.422279   0.000000   0.000000
     54          9.855782        9.855792   0.000000   0.000000
     55         10.020411       10.020440   0.000000   0.000000
     56         10.376837       10.376843   0.000000   0.000000
     57         10.926816       10.926824   0.000000   0.000000
     58         11.439725       11.439740   0.000000   0.000000
     59         11.644985       11.644990   0.000000   0.000000
     60         12.083256       12.083267   0.000000   0.000000
 
 -0.3333333E+00  0.3333333E+00  0.0000000E+00  0.2222222E+00
      1         -2.388286       -2.388286   1.000000   1.000000
      2         -1.559676       -1.559676   1.000000   1.000000
      3         -1.549876       -1.549876   1.000000   1.000000
      4         -1.546075       -1.546075   1.000000   1.000000
      5         -1.487159       -1.487159   1.000000   1.000000
      6         -1.436808       -1.436808   1.000000   1.000000
      7         -1.432683       -1.432683   1.000000   1.000000
      8         -1.392908       -1.392908   1.000000   1.000000
      9         -1.392842       -1.392842   1.000000   1.000000
     10         -1.388905       -1.388905   1.000000   1.000000
     11         -1.362891       -1.362891   1.000000   1.000000
     12         -1.356561       -1.356561   1.000000   1.000000
     13         -1.213284       -1.213284   1.000000   1.000000
     14         -1.176116       -1.176116   1.000000   1.000000
     15         -1.084265       -1.084265   1.000000   1.000000
     16         -1.056597       -1.056597   1.000000   1.000000
     17         -0.736481       -0.736481   1.000000   1.000000
     18         -0.691745       -0.691745   1.000000   1.000000
     19         -0.690823       -0.690823   1.000000   1.000000
     20         -0.626862       -0.626862   1.000000   1.000000
     21         -0.436188       -0.436188   1.000000   1.000000
     22         -0.390938       -0.390938   1.000000   1.000000
     23          0.080956        0.080956   1.000000   1.000000
     24          0.111884        0.111884   1.000000   1.000000
     25          0.182656        0.182656   1.000000   1.000000
     26          0.197589        0.197589   1.000000   1.000000
     27          0.285782        0.285782   1.000000   1.000000
     28          0.289121        0.289121   1.000000   1.000000
     29          0.320648        0.320648   1.000000   1.000000
     30          0.326330        0.326330   1.000000   1.000000
     31          0.328834        0.328834   1.000000   1.000000
     32          0.625314        0.625314   1.000000   1.000000
     33          0.682566        0.682566   1.000000   1.000000
     34          0.814773        0.814773   1.000000   1.000000
     35          0.818107        0.818107   1.000000   1.000000
     36          0.847292        0.847292   1.000000   1.000000
     37          0.908537        0.908537   1.000000   1.000000
     38          0.983093        0.983093   1.000000   1.000000
     39          1.003478        1.003478   1.000000   1.000000
     40          1.022713        1.022713   1.000000   1.000000
     41          1.090184        1.090184   1.000000   1.000000
     42          5.753846        5.753846  -0.000000  -0.000000
     43          5.757534        5.757534  -0.000000  -0.000000
     44          5.780780        5.780780  -0.000000  -0.000000
     45          5.929792        5.929792  -0.000000  -0.000000
     46          5.939540        5.939540  -0.000000  -0.000000
     47          6.202530        6.202530  -0.000000  -0.000000
     48          6.321297        6.321297  -0.000000  -0.000000
     49          6.946501        6.946501  -0.000000  -0.000000
     50          7.055648        7.055648  -0.000000  -0.000000
     51          7.641475        7.641475   0.000000   0.000000
     52          7.660971        7.660971   0.000000   0.000000
     53          7.768300        7.768300   0.000000   0.000000
     54          8.184752        8.184752   0.000000   0.000000
     55          8.211088        8.211088   0.000000   0.000000
     56          8.592904        8.592904   0.000000   0.000000
     57          9.138821        9.138821   0.000000   0.000000
     58          9.565679        9.565679   0.000000   0.000000
     59          9.991941        9.991941   0.000000   0.000000
     60         10.434878       10.434878   0.000000   0.000000
