       N       E                     dE             d eps       ncg     rms          rms(c)
DAV:   1     0.798387688794E+03    0.79839E+03   -0.33519E+04   960   0.189E+03
DAV:   2     0.736693731947E+02   -0.72472E+03   -0.69302E+03   960   0.403E+02
DAV:   3    -0.327473420721E+02   -0.10642E+03   -0.10003E+03  1000   0.198E+02
DAV:   4    -0.372982169432E+02   -0.45509E+01   -0.45063E+01  1076   0.569E+01
DAV:   5    -0.373994831996E+02   -0.10127E+00   -0.10119E+00  1164   0.719E+00    0.275E+01
DAV:   6    -0.396671002143E+02   -0.22676E+01   -0.13260E+02  1328   0.248E+02    0.324E+01
DAV:   7    -0.718568911898E+02   -0.32190E+02   -0.45752E+02  1496   0.210E+02    0.520E+01
DAV:   8    -0.421838487065E+02    0.29673E+02   -0.30370E+02  1552   0.131E+02    0.205E+01
DAV:   9    -0.334527401449E+02    0.87311E+01   -0.20667E+01  1456   0.702E+01    0.139E+01
DAV:  10    -0.321562271575E+02    0.12965E+01   -0.72238E+00  1412   0.545E+01    0.119E+01
DAV:  11    -0.302989712728E+02    0.18573E+01   -0.27269E+00  1392   0.344E+01    0.842E+00
DAV:  12    -0.301508695816E+02    0.14810E+00   -0.27483E+00  1612   0.478E+01    0.603E+00
DAV:  13    -0.314634222910E+02   -0.13126E+01   -0.32575E+00  1608   0.456E+01    0.523E+00
DAV:  14    -0.322502299262E+02   -0.78681E+00   -0.13376E+00  1336   0.269E+01    0.384E+00
DAV:  15    -0.334464965226E+02   -0.11963E+01   -0.92371E-01  1284   0.195E+01    0.290E+00
DAV:  16    -0.345181645759E+02   -0.10717E+01   -0.10538E+00  1480   0.252E+01    0.180E+00
DAV:  17    -0.349978171051E+02   -0.47965E+00   -0.77518E-01  1468   0.175E+01    0.146E+00
DAV:  18    -0.355055201154E+02   -0.50770E+00   -0.49380E-01  1196   0.831E+00    0.927E-01
DAV:  19    -0.356724116395E+02   -0.16689E+00   -0.11009E-01  1184   0.446E+00    0.767E-01
DAV:  20    -0.358235913651E+02   -0.15118E+00   -0.77694E-02  1192   0.285E+00    0.652E-01
DAV:  21    -0.358808280863E+02   -0.57237E-01   -0.47959E-02  1176   0.329E+00    0.503E-01
DAV:  22    -0.359140187117E+02   -0.33191E-01   -0.23552E-02  1144   0.286E+00    0.436E-01
DAV:  23    -0.361466237713E+02   -0.23261E+00   -0.17171E-02  1196   0.195E+00    0.348E-01
DAV:  24    -0.364034356174E+02   -0.25681E+00   -0.17260E-02  1260   0.269E+00    0.210E-01
DAV:  25    -0.364658707418E+02   -0.62435E-01   -0.88209E-03  1408   0.178E+00    0.207E-01
DAV:  26    -0.364866831465E+02   -0.20812E-01   -0.97549E-03  1268   0.136E+00    0.116E-01
DAV:  27    -0.364908042796E+02   -0.41211E-02   -0.17629E-03  1072   0.109E+00    0.893E-02
DAV:  28    -0.364936886307E+02   -0.28844E-02   -0.14610E-03  1004   0.663E-01    0.769E-02
DAV:  29    -0.364952158735E+02   -0.15272E-02   -0.57050E-04   760   0.356E-01    0.625E-02
DAV:  30    -0.364972099058E+02   -0.19940E-02   -0.41296E-04   760   0.235E-01    0.532E-02
DAV:  31    -0.365006459220E+02   -0.34360E-02   -0.34341E-04   744   0.291E-01    0.367E-02
DAV:  32    -0.365031358153E+02   -0.24899E-02   -0.38907E-04   768   0.231E-01    0.247E-02
DAV:  33    -0.365043093605E+02   -0.11735E-02   -0.13170E-04   644   0.119E-01    0.145E-02
DAV:  34    -0.365046697795E+02   -0.36042E-03   -0.93800E-05   640   0.111E-01    0.762E-03
DAV:  35    -0.365047519764E+02   -0.82197E-04   -0.28071E-05   592   0.545E-02
   1 F= -.40183231E+02 E0= -.40175546E+02  d E =-.401832E+02  mag=     0.0010
       N       E                     dE             d eps       ncg     rms          rms(c)
DAV:   1    -0.365205090086E+02   -0.15839E-01   -0.26796E+01  1024   0.199E+01    0.860E-01
DAV:   2    -0.365659839346E+02   -0.45475E-01   -0.58193E-01  1440   0.850E+00    0.636E-01
DAV:   3    -0.365698115007E+02   -0.38276E-02   -0.13114E-01  1400   0.113E+01    0.531E-01
DAV:   4    -0.365676388809E+02    0.21726E-02   -0.20405E-01  1440   0.109E+01    0.454E-01
DAV:   5    -0.365605717414E+02    0.70671E-02   -0.14448E-01  1504   0.105E+01    0.210E-01
DAV:   6    -0.365582609654E+02    0.23108E-02   -0.31471E-02  1720   0.453E+00    0.101E-01
DAV:   7    -0.365581902933E+02    0.70672E-04   -0.30330E-03  1312   0.133E+00    0.283E-02
DAV:   8    -0.365582503114E+02   -0.60018E-04   -0.71116E-04   828   0.442E-01
   2 F= -.40264344E+02 E0= -.40256610E+02  d E =-.811127E-01  mag=     0.0008
       N       E                     dE             d eps       ncg     rms          rms(c)
DAV:   1    -0.365665010752E+02   -0.83108E-02   -0.38571E-01  1024   0.234E+00    0.916E-02
DAV:   2    -0.365671393876E+02   -0.63831E-03   -0.74500E-03  1296   0.561E-01    0.660E-02
DAV:   3    -0.365671217105E+02    0.17677E-04   -0.37038E-04   728   0.337E-01
   3 F= -.40265218E+02 E0= -.40257360E+02  d E =-.819869E-01  mag=     0.0008
       N       E                     dE             d eps       ncg     rms          rms(c)
DAV:   1    -0.366084255811E+02   -0.41286E-01   -0.36392E+01  1024   0.238E+01    0.580E-01
DAV:   2    -0.367113059987E+02   -0.10288E+00   -0.10561E+00  1632   0.159E+01    0.799E-01
DAV:   3    -0.366781966218E+02    0.33109E-01   -0.46843E-01  1816   0.185E+01    0.510E-01
DAV:   4    -0.366747171863E+02    0.34794E-02   -0.35620E-02  1448   0.356E+00    0.331E-01
DAV:   5    -0.366738677073E+02    0.84948E-03   -0.96046E-03  1600   0.177E+00    0.172E-01
DAV:   6    -0.366734879026E+02    0.37980E-03   -0.40357E-03  1264   0.195E+00    0.664E-02
DAV:   7    -0.366734048722E+02    0.83030E-04   -0.22861E-03   900   0.133E+00    0.297E-02
DAV:   8    -0.366734253091E+02   -0.20437E-04   -0.59785E-04   676   0.639E-01
   4 F= -.40379654E+02 E0= -.40371926E+02  d E =-.114436E+00  mag=     0.0006
       N       E                     dE             d eps       ncg     rms          rms(c)
DAV:   1    -0.363304283685E+02    0.34298E+00   -0.26839E+02  1200   0.787E+01    0.153E+00
DAV:   2    -0.368347168210E+02   -0.50429E+00   -0.53986E+00  1504   0.325E+01    0.201E+00
DAV:   3    -0.367735493587E+02    0.61167E-01   -0.17640E+00  1576   0.358E+01    0.119E+00
DAV:   4    -0.367401375581E+02    0.33412E-01   -0.38228E-01  1528   0.149E+01    0.814E-01
DAV:   5    -0.367372807763E+02    0.28568E-02   -0.87994E-02  1404   0.790E+00    0.540E-01
DAV:   6    -0.367354089751E+02    0.18718E-02   -0.73108E-02  1216   0.847E+00    0.365E-01
DAV:   7    -0.367332788190E+02    0.21302E-02   -0.35151E-02  1456   0.612E+00    0.775E-02
DAV:   8    -0.367335655902E+02   -0.28677E-03   -0.65934E-03  1492   0.161E+00    0.664E-02
DAV:   9    -0.367336523771E+02   -0.86787E-04   -0.16214E-03   980   0.773E-01
   5 F= -.40469824E+02 E0= -.40462633E+02  d E =-.204606E+00  mag=     0.0005
       N       E                     dE             d eps       ncg     rms          rms(c)
DAV:   1    -0.367255565625E+02    0.80090E-02   -0.14561E+01   992   0.156E+01    0.386E-01
DAV:   2    -0.367591277276E+02   -0.33571E-01   -0.36309E-01  1576   0.842E+00    0.434E-01
DAV:   3    -0.367531324686E+02    0.59953E-02   -0.12804E-01  1664   0.882E+00    0.321E-01
DAV:   4    -0.367513977786E+02    0.17347E-02   -0.19086E-02  1464   0.378E+00    0.218E-01
DAV:   5    -0.367510753515E+02    0.32243E-03   -0.58464E-03  1476   0.170E+00    0.108E-01
DAV:   6    -0.367510986767E+02   -0.23325E-04   -0.62062E-03  1112   0.274E+00    0.816E-02
DAV:   7    -0.367508565814E+02    0.24210E-03   -0.22339E-03   888   0.157E+00    0.234E-02
DAV:   8    -0.367508771998E+02   -0.20618E-04   -0.35359E-04   580   0.343E-01
   6 F= -.40478109E+02 E0= -.40470661E+02  d E =-.212891E+00  mag=     0.0004
       N       E                     dE             d eps       ncg     rms          rms(c)
DAV:   1    -0.367392400703E+02    0.11617E-01   -0.53494E+01  1032   0.309E+01    0.811E-01
DAV:   2    -0.368336573642E+02   -0.94417E-01   -0.10679E+00  1416   0.916E+00    0.688E-01
DAV:   3    -0.368330916350E+02    0.56573E-03   -0.10228E-01  1272   0.872E+00    0.537E-01
DAV:   4    -0.368322923085E+02    0.79933E-03   -0.56937E-02  1200   0.735E+00    0.383E-01
DAV:   5    -0.368387665226E+02   -0.64742E-02   -0.14951E-01  1728   0.106E+01    0.360E-01
DAV:   6    -0.368293598435E+02    0.94067E-02   -0.98861E-02  1632   0.781E+00    0.141E-01
DAV:   7    -0.368289782177E+02    0.38163E-03   -0.73604E-03  1640   0.260E+00    0.571E-02
DAV:   8    -0.368290350338E+02   -0.56816E-04   -0.18958E-03  1160   0.764E-01
   7 F= -.40568584E+02 E0= -.40561280E+02  d E =-.904756E-01  mag=     0.0003
       N       E                     dE             d eps       ncg     rms          rms(c)
DAV:   1    -0.368274534487E+02    0.15248E-02   -0.80017E-01  1000   0.356E+00    0.108E-01
DAV:   2    -0.368288238761E+02   -0.13704E-02   -0.15948E-02  1448   0.134E+00    0.829E-02
DAV:   3    -0.368289095318E+02   -0.85656E-04   -0.34520E-03  1128   0.174E+00    0.773E-02
DAV:   4    -0.368288644682E+02    0.45064E-04   -0.26352E-03   712   0.143E+00    0.573E-02
DAV:   5    -0.368288271225E+02    0.37346E-04   -0.14914E-03   648   0.104E+00
   8 F= -.40570146E+02 E0= -.40563116E+02  d E =-.920368E-01  mag=     0.0002
       N       E                     dE             d eps       ncg     rms          rms(c)
DAV:   1    -0.368551934004E+02   -0.26329E-01   -0.10968E+01  1008   0.135E+01    0.405E-01
DAV:   2    -0.368749876920E+02   -0.19794E-01   -0.21509E-01  1440   0.433E+00    0.338E-01
DAV:   3    -0.368769297218E+02   -0.19420E-02   -0.63455E-02  1296   0.663E+00    0.320E-01
DAV:   4    -0.368735240550E+02    0.34057E-02   -0.45294E-02  1328   0.583E+00    0.188E-01
DAV:   5    -0.368731560904E+02    0.36796E-03   -0.12647E-02  1616   0.334E+00    0.106E-01
DAV:   6    -0.368729555250E+02    0.20057E-03   -0.66298E-03  1296   0.272E+00    0.581E-02
DAV:   7    -0.368728593365E+02    0.96189E-04   -0.13170E-03   840   0.106E+00
   9 F= -.40620959E+02 E0= -.40613701E+02  d E =-.508134E-01  mag=     0.0002
       N       E                     dE             d eps       ncg     rms          rms(c)
DAV:   1    -0.368599867502E+02    0.12969E-01   -0.16914E+01  1008   0.169E+01    0.484E-01
DAV:   2    -0.368909732332E+02   -0.30986E-01   -0.33503E-01  1412   0.490E+00    0.404E-01
DAV:   3    -0.368931891632E+02   -0.22159E-02   -0.66832E-02  1104   0.695E+00    0.365E-01
DAV:   4    -0.368898192055E+02    0.33700E-02   -0.61827E-02  1312   0.677E+00    0.237E-01
DAV:   5    -0.368887568892E+02    0.10623E-02   -0.18378E-02  1744   0.383E+00    0.119E-01
DAV:   6    -0.368886865132E+02    0.70376E-04   -0.77470E-03  1504   0.287E+00    0.724E-02
DAV:   7    -0.368884924268E+02    0.19409E-03   -0.20150E-03   928   0.144E+00    0.207E-02
DAV:   8    -0.368885498948E+02   -0.57468E-04   -0.63457E-04   840   0.271E-01
  10 F= -.40646113E+02 E0= -.40639010E+02  d E =-.759676E-01  mag=     0.0002
       N       E                     dE             d eps       ncg     rms          rms(c)
DAV:   1    -0.368873029207E+02    0.11895E-02   -0.23489E-01  1016   0.196E+00    0.557E-02
DAV:   2    -0.368877011810E+02   -0.39826E-03   -0.42696E-03  1384   0.544E-01    0.409E-02
DAV:   3    -0.368877313432E+02   -0.30162E-04   -0.55144E-04   612   0.624E-01
  11 F= -.40646531E+02 E0= -.40639198E+02  d E =-.763851E-01  mag=     0.0001
       N       E                     dE             d eps       ncg     rms          rms(c)
DAV:   1    -0.369032053057E+02   -0.15504E-01   -0.29239E+00   992   0.678E+00    0.193E-01
DAV:   2    -0.369083293163E+02   -0.51240E-02   -0.56445E-02  1304   0.213E+00    0.155E-01
DAV:   3    -0.369088784878E+02   -0.54917E-03   -0.13430E-02  1272   0.312E+00    0.158E-01
DAV:   4    -0.369081156165E+02    0.76287E-03   -0.86534E-03   888   0.249E+00    0.964E-02
DAV:   5    -0.369080449376E+02    0.70679E-04   -0.14445E-03   880   0.119E+00
  12 F= -.40668539E+02 E0= -.40661554E+02  d E =-.220081E-01  mag=     0.0001
       N       E                     dE             d eps       ncg     rms          rms(c)
DAV:   1    -0.369001997754E+02    0.79158E-02   -0.26749E+01   992   0.209E+01    0.558E-01
DAV:   2    -0.369511676073E+02   -0.50968E-01   -0.54462E-01  1384   0.654E+00    0.501E-01
DAV:   3    -0.369526804292E+02   -0.15128E-02   -0.88153E-02  1280   0.791E+00    0.416E-01
DAV:   4    -0.369490010729E+02    0.36794E-02   -0.73322E-02  1312   0.742E+00    0.309E-01
DAV:   5    -0.369473444386E+02    0.16566E-02   -0.23541E-02  1776   0.435E+00    0.170E-01
DAV:   6    -0.369472090509E+02    0.13539E-03   -0.12879E-02  1616   0.376E+00    0.980E-02
DAV:   7    -0.369467708149E+02    0.43824E-03   -0.32490E-03  1112   0.188E+00    0.242E-02
DAV:   8    -0.369468492740E+02   -0.78459E-04   -0.92649E-04   972   0.289E-01
  13 F= -.40711889E+02 E0= -.40704599E+02  d E =-.653585E-01  mag=     0.0001
       N       E                     dE             d eps       ncg     rms          rms(c)
DAV:   1    -0.367998067827E+02    0.14696E+00   -0.11425E+02  1152   0.469E+01    0.111E+00
DAV:   2    -0.369451557672E+02   -0.14535E+00   -0.16077E+00  1320   0.133E+01    0.988E-01
DAV:   3    -0.369500392951E+02   -0.48835E-02   -0.31529E-01  1128   0.154E+01    0.780E-01
DAV:   4    -0.369443093849E+02    0.57299E-02   -0.37358E-01  1480   0.166E+01    0.602E-01
DAV:   5    -0.369314274332E+02    0.12882E-01   -0.10365E-01  1688   0.832E+00    0.160E-01
DAV:   6    -0.369330649657E+02   -0.16375E-02   -0.30028E-02  1664   0.495E+00    0.183E-01
DAV:   7    -0.369315708516E+02    0.14941E-02   -0.11826E-02  1320   0.364E+00    0.422E-02
DAV:   8    -0.369317754655E+02   -0.20461E-03   -0.22550E-03  1024   0.547E-01    0.320E-02
DAV:   9    -0.369317890412E+02   -0.13576E-04   -0.22988E-04   560   0.290E-01
  14 F= -.40702205E+02 E0= -.40694603E+02  d E =-.556742E-01  mag=     0.0001
       N       E                     dE             d eps       ncg     rms          rms(c)
DAV:   1    -0.368950124257E+02    0.36763E-01   -0.35850E+01  1016   0.247E+01    0.639E-01
DAV:   2    -0.369602254630E+02   -0.65213E-01   -0.70737E-01  1376   0.629E+00    0.550E-01
DAV:   3    -0.369591294782E+02    0.10960E-02   -0.47935E-02  1184   0.577E+00    0.424E-01
DAV:   4    -0.369604314214E+02   -0.13019E-02   -0.84541E-02  1168   0.811E+00    0.385E-01
DAV:   5    -0.369560527816E+02    0.43786E-02   -0.57117E-02  1760   0.652E+00    0.191E-01
DAV:   6    -0.369553364380E+02    0.71634E-03   -0.13719E-02  1760   0.285E+00    0.778E-02
DAV:   7    -0.369551128309E+02    0.22361E-03   -0.32244E-03   944   0.193E+00    0.477E-02
DAV:   8    -0.369550697838E+02    0.43047E-04   -0.96435E-04   816   0.845E-01
  15 F= -.40723070E+02 E0= -.40715660E+02  d E =-.765397E-01  mag=     0.0001
       N       E                     dE             d eps       ncg     rms          rms(c)
DAV:   1    -0.369645726742E+02   -0.94598E-02   -0.11219E+01  1000   0.136E+01    0.409E-01
DAV:   2    -0.369851771323E+02   -0.20604E-01   -0.23632E-01  1456   0.578E+00    0.361E-01
DAV:   3    -0.369866777387E+02   -0.15006E-02   -0.95471E-02  1520   0.831E+00    0.340E-01
DAV:   4    -0.369830533585E+02    0.36244E-02   -0.33237E-02  1280   0.483E+00    0.201E-01
DAV:   5    -0.369828897788E+02    0.16358E-03   -0.69778E-03  1584   0.253E+00    0.109E-01
DAV:   6    -0.369827545648E+02    0.13521E-03   -0.68560E-03  1336   0.275E+00    0.720E-02
DAV:   7    -0.369825758627E+02    0.17870E-03   -0.13605E-03   864   0.117E+00
  16 F= -.40749182E+02 E0= -.40741676E+02  d E =-.261112E-01  mag=     0.0000
       N       E                     dE             d eps       ncg     rms          rms(c)
DAV:   1    -0.369826878775E+02    0.66687E-04   -0.15235E+00   984   0.496E+00    0.153E-01
DAV:   2    -0.369854644368E+02   -0.27766E-02   -0.31427E-02  1456   0.206E+00    0.128E-01
DAV:   3    -0.369857298561E+02   -0.26542E-03   -0.13976E-02  1328   0.312E+00    0.128E-01
DAV:   4    -0.369851656052E+02    0.56425E-03   -0.46431E-03   896   0.186E+00    0.678E-02
DAV:   5    -0.369851549253E+02    0.10680E-04   -0.67478E-04   704   0.856E-01
  17 F= -.40751462E+02 E0= -.40744061E+02  d E =-.283916E-01  mag=     0.0000
       N       E                     dE             d eps       ncg     rms          rms(c)
DAV:   1    -0.369849941994E+02    0.17141E-03   -0.10770E+01   984   0.133E+01    0.414E-01
DAV:   2    -0.370042455862E+02   -0.19251E-01   -0.21783E-01  1512   0.542E+00    0.348E-01
DAV:   3    -0.370063714316E+02   -0.21258E-02   -0.84895E-02  1312   0.795E+00    0.324E-01
DAV:   4    -0.370028615812E+02    0.35099E-02   -0.40332E-02  1168   0.544E+00    0.191E-01
DAV:   5    -0.370027561664E+02    0.10541E-03   -0.80633E-03  1568   0.265E+00    0.107E-01
DAV:   6    -0.370026576154E+02    0.98551E-04   -0.65778E-03  1264   0.256E+00    0.713E-02
DAV:   7    -0.370025034534E+02    0.15416E-03   -0.13792E-03   904   0.115E+00
  18 F= -.40769448E+02 E0= -.40761962E+02  d E =-.179863E-01  mag=     0.0000
       N       E                     dE             d eps       ncg     rms          rms(c)
DAV:   1    -0.370025133675E+02    0.14425E-03   -0.43667E-02  1000   0.871E-01    0.293E-02
DAV:   2    -0.370025944468E+02   -0.81079E-04   -0.89242E-04  1016   0.453E-01
  19 F= -.40769606E+02 E0= -.40762012E+02  d E =-.181444E-01  mag=     0.0000
       N       E                     dE             d eps       ncg     rms          rms(c)
DAV:   1    -0.370092633366E+02   -0.67500E-02   -0.14639E+00   984   0.488E+00    0.142E-01
DAV:   2    -0.370120407117E+02   -0.27774E-02   -0.30860E-02  1616   0.272E+00    0.137E-01
DAV:   3    -0.370117595231E+02    0.28119E-03   -0.15269E-02  1520   0.333E+00    0.114E-01
DAV:   4    -0.370114338353E+02    0.32569E-03   -0.22039E-03   840   0.120E+00    0.631E-02
DAV:   5    -0.370114882946E+02   -0.54459E-04   -0.11962E-03   752   0.111E+00
  20 F= -.40777222E+02 E0= -.40769925E+02  d E =-.761568E-02  mag=     0.0000
       N       E                     dE             d eps       ncg     rms          rms(c)
DAV:   1    -0.370077947081E+02    0.36391E-02   -0.13224E+01   984   0.148E+01    0.408E-01
DAV:   2    -0.370314346789E+02   -0.23640E-01   -0.25554E-01  1328   0.495E+00    0.352E-01
DAV:   3    -0.370311732908E+02    0.26139E-03   -0.26956E-02  1184   0.505E+00    0.264E-01
DAV:   4    -0.370314633316E+02   -0.29004E-03   -0.32040E-02  1456   0.495E+00    0.218E-01
DAV:   5    -0.370308030880E+02    0.66024E-03   -0.29409E-02  1400   0.474E+00    0.150E-01
DAV:   6    -0.370299023900E+02    0.90070E-03   -0.96769E-03  1416   0.283E+00    0.672E-02
DAV:   7    -0.370298125088E+02    0.89881E-04   -0.18904E-03  1152   0.122E+00
  21 F= -.40791708E+02 E0= -.40784504E+02  d E =-.221017E-01  mag=     0.0000
       N       E                     dE             d eps       ncg     rms          rms(c)
DAV:   1    -0.370291531922E+02    0.74920E-03   -0.32336E+00   984   0.725E+00    0.196E-01
DAV:   2    -0.370346911645E+02   -0.55380E-02   -0.59382E-02  1344   0.218E+00    0.161E-01
DAV:   3    -0.370349014596E+02   -0.21030E-03   -0.88386E-03  1136   0.282E+00    0.140E-01
DAV:   4    -0.370346576143E+02    0.24385E-03   -0.85858E-03   784   0.260E+00    0.992E-02
DAV:   5    -0.370345518333E+02    0.10578E-03   -0.42038E-03   728   0.178E+00    0.667E-02
DAV:   6    -0.370344139410E+02    0.13789E-03   -0.17981E-03   744   0.130E+00
  22 F= -.40794411E+02 E0= -.40787197E+02  d E =-.248050E-01  mag=     0.0000
       N       E                     dE             d eps       ncg     rms          rms(c)
DAV:   1    -0.370428402090E+02   -0.82884E-02   -0.38085E+00   992   0.805E+00    0.224E-01
DAV:   2    -0.370492458360E+02   -0.64056E-02   -0.69276E-02  1328   0.212E+00    0.178E-01
DAV:   3    -0.370496948902E+02   -0.44905E-03   -0.11594E-02  1184   0.303E+00    0.162E-01
DAV:   4    -0.370490853739E+02    0.60952E-03   -0.13178E-02   736   0.336E+00    0.109E-01
DAV:   5    -0.370488952650E+02    0.19011E-03   -0.45745E-03   768   0.197E+00    0.603E-02
DAV:   6    -0.370487853219E+02    0.10994E-03   -0.19828E-03   752   0.144E+00
  23 F= -.40802965E+02 E0= -.40795691E+02  d E =-.855354E-02  mag=     0.0000
       N       E                     dE             d eps       ncg     rms          rms(c)
DAV:   1    -0.370516733018E+02   -0.27780E-02   -0.31161E-01   992   0.235E+00    0.651E-02
DAV:   2    -0.370522141626E+02   -0.54086E-03   -0.58857E-03  1360   0.645E-01    0.484E-02
DAV:   3    -0.370522213046E+02   -0.71421E-05   -0.46328E-04   616   0.680E-01
  24 F= -.40804734E+02 E0= -.40797560E+02  d E =-.103229E-01  mag=     0.0000
       N       E                     dE             d eps       ncg     rms          rms(c)
DAV:   1    -0.370561807782E+02   -0.39666E-02   -0.12296E+00   992   0.464E+00    0.144E-01
DAV:   2    -0.370584499420E+02   -0.22692E-02   -0.26486E-02  1664   0.243E+00    0.130E-01
DAV:   3    -0.370583066472E+02    0.14329E-03   -0.12401E-02  1392   0.300E+00    0.114E-01
DAV:   4    -0.370580088452E+02    0.29780E-03   -0.25680E-03   880   0.149E+00    0.601E-02
DAV:   5    -0.370580482676E+02   -0.39422E-04   -0.78274E-04   864   0.668E-01
  25 F= -.40807209E+02 E0= -.40799998E+02  d E =-.127977E-01  mag=     0.0000
       N       E                     dE             d eps       ncg     rms          rms(c)
DAV:   1    -0.370584532119E+02   -0.44437E-03   -0.48915E+00   992   0.916E+00    0.257E-01
DAV:   2    -0.370667056232E+02   -0.82524E-02   -0.89645E-02  1328   0.220E+00    0.195E-01
DAV:   3    -0.370666359270E+02    0.69696E-04   -0.52471E-03  1200   0.197E+00    0.147E-01
DAV:   4    -0.370671607253E+02   -0.52480E-03   -0.17879E-02   976   0.385E+00    0.148E-01
DAV:   5    -0.370662220260E+02    0.93870E-03   -0.94737E-03   800   0.272E+00    0.631E-02
DAV:   6    -0.370661450111E+02    0.77015E-04   -0.10655E-03   680   0.115E+00
  26 F= -.40808534E+02 E0= -.40801453E+02  d E =-.141231E-01  mag=     0.0000
       N       E                     dE             d eps       ncg     rms          rms(c)
DAV:   1    -0.370624523077E+02    0.37697E-02   -0.76456E-01   992   0.360E+00    0.105E-01
DAV:   2    -0.370636321785E+02   -0.11799E-02   -0.13571E-02  1416   0.121E+00    0.880E-02
DAV:   3    -0.370637372272E+02   -0.10505E-03   -0.40922E-03  1008   0.186E+00    0.843E-02
DAV:   4    -0.370635471192E+02    0.19011E-03   -0.26277E-03   704   0.146E+00    0.490E-02
DAV:   5    -0.370635678166E+02   -0.20697E-04   -0.85142E-04   680   0.841E-01
  27 F= -.40808653E+02 E0= -.40801660E+02  d E =-.142419E-01  mag=     0.0000
       N       E                     dE             d eps       ncg     rms          rms(c)
DAV:   1    -0.370709743510E+02   -0.74272E-02   -0.41637E+00   992   0.837E+00    0.253E-01
DAV:   2    -0.370776625535E+02   -0.66882E-02   -0.74017E-02  1296   0.219E+00    0.198E-01
DAV:   3    -0.370775558521E+02    0.10670E-03   -0.55922E-03  1168   0.201E+00    0.152E-01
DAV:   4    -0.370777646006E+02   -0.20875E-03   -0.11550E-02  1104   0.322E+00    0.136E-01
DAV:   5    -0.370774330557E+02    0.33154E-03   -0.13530E-02   752   0.333E+00    0.954E-02
DAV:   6    -0.370770602746E+02    0.37278E-03   -0.60376E-03   768   0.228E+00    0.322E-02
DAV:   7    -0.370770305864E+02    0.29688E-04   -0.68301E-04   656   0.746E-01
  28 F= -.40815660E+02 E0= -.40808366E+02  d E =-.700719E-02  mag=     0.0000
       N       E                     dE             d eps       ncg     rms          rms(c)
DAV:   1    -0.370796310207E+02   -0.25707E-02   -0.66664E-01   992   0.333E+00    0.976E-02
DAV:   2    -0.370806927144E+02   -0.10617E-02   -0.11464E-02  1296   0.834E-01    0.698E-02
DAV:   3    -0.370807796256E+02   -0.86911E-04   -0.16905E-03   784   0.119E+00
  29 F= -.40816967E+02 E0= -.40809280E+02  d E =-.831368E-02  mag=     0.0000
       N       E                     dE             d eps       ncg     rms          rms(c)
DAV:   1    -0.370888948215E+02   -0.82021E-02   -0.17319E+00  1008   0.548E+00    0.164E-01
DAV:   2    -0.370921706624E+02   -0.32758E-02   -0.39722E-02  1640   0.355E+00    0.160E-01
DAV:   3    -0.370917924941E+02    0.37817E-03   -0.19956E-02  1696   0.391E+00    0.131E-01
DAV:   4    -0.370914923345E+02    0.30016E-03   -0.40922E-03   904   0.176E+00    0.854E-02
DAV:   5    -0.370914842396E+02    0.80949E-05   -0.21873E-03   872   0.149E+00    0.606E-02
DAV:   6    -0.370914084920E+02    0.75748E-04   -0.98137E-04   808   0.928E-01
  30 F= -.40822655E+02 E0= -.40815182E+02  d E =-.568852E-02  mag=     0.0000
       N       E                     dE             d eps       ncg     rms          rms(c)
DAV:   1    -0.370915603029E+02   -0.76063E-04   -0.15538E+01  1008   0.161E+01    0.431E-01
DAV:   2    -0.371190645194E+02   -0.27504E-01   -0.29676E-01  1256   0.479E+00    0.378E-01
DAV:   3    -0.371181651869E+02    0.89933E-03   -0.29676E-02  1216   0.441E+00    0.287E-01
DAV:   4    -0.371177226135E+02    0.44257E-03   -0.12716E-02  1120   0.368E+00    0.211E-01
DAV:   5    -0.371191500021E+02   -0.14274E-02   -0.30107E-02  1440   0.478E+00    0.207E-01
DAV:   6    -0.371172713642E+02    0.18786E-02   -0.36111E-02  1248   0.502E+00    0.759E-02
DAV:   7    -0.371169030519E+02    0.36831E-03   -0.40352E-03   864   0.179E+00    0.270E-02
DAV:   8    -0.371170373524E+02   -0.13430E-03   -0.16300E-03  1192   0.496E-01
  31 F= -.40833776E+02 E0= -.40826085E+02  d E =-.168088E-01  mag=     0.0000
       N       E                     dE             d eps       ncg     rms          rms(c)
DAV:   1    -0.370328597031E+02    0.84043E-01   -0.63129E+01  1024   0.338E+01    0.876E-01
DAV:   2    -0.371506836726E+02   -0.11782E+00   -0.12706E+00  1288   0.963E+00    0.769E-01
DAV:   3    -0.371468361409E+02    0.38475E-02   -0.12488E-01  1264   0.875E+00    0.584E-01
DAV:   4    -0.371443155216E+02    0.25206E-02   -0.43875E-02  1184   0.700E+00    0.417E-01
DAV:   5    -0.371424538066E+02    0.18617E-02   -0.25595E-02  1664   0.440E+00    0.181E-01
DAV:   6    -0.371470136518E+02   -0.45598E-02   -0.77447E-02  1432   0.772E+00    0.258E-01
DAV:   7    -0.371418114668E+02    0.52022E-02   -0.46393E-02  1392   0.550E+00    0.580E-02
DAV:   8    -0.371418835629E+02   -0.72096E-04   -0.22131E-03  1344   0.900E-01    0.293E-02
DAV:   9    -0.371419262672E+02   -0.42704E-04   -0.54248E-04   872   0.268E-01
  32 F= -.40830673E+02 E0= -.40822533E+02  d E =-.137058E-01  mag=     0.0000
       N       E                     dE             d eps       ncg     rms          rms(c)
DAV:   1    -0.370935679632E+02    0.48316E-01   -0.22903E+01  1008   0.196E+01    0.538E-01
DAV:   2    -0.371345398684E+02   -0.40972E-01   -0.44847E-01  1344   0.706E+00    0.483E-01
DAV:   3    -0.371329574314E+02    0.15824E-02   -0.47438E-02  1256   0.670E+00    0.362E-01
DAV:   4    -0.371326385531E+02    0.31888E-03   -0.34117E-02  1440   0.502E+00    0.287E-01
DAV:   5    -0.371336657822E+02   -0.10272E-02   -0.69377E-02  1328   0.746E+00    0.265E-01
DAV:   6    -0.371306679385E+02    0.29978E-02   -0.33579E-02  1616   0.504E+00    0.692E-02
DAV:   7    -0.371307146712E+02   -0.46733E-04   -0.29162E-03  1376   0.123E+00    0.335E-02
DAV:   8    -0.371307413789E+02   -0.26708E-04   -0.65907E-04   840   0.502E-01
  33 F= -.40836314E+02 E0= -.40828462E+02  d E =-.193470E-01  mag=     0.0000
       N       E                     dE             d eps       ncg     rms          rms(c)
DAV:   1    -0.371372856747E+02   -0.65710E-02   -0.58842E+00  1000   0.958E+00    0.263E-01
DAV:   2    -0.371472187576E+02   -0.99331E-02   -0.10705E-01  1248   0.252E+00    0.230E-01
DAV:   3    -0.371474230509E+02   -0.20429E-03   -0.23496E-02  1376   0.394E+00    0.219E-01
DAV:   4    -0.371465243850E+02    0.89867E-03   -0.15868E-02  1072   0.380E+00    0.146E-01
DAV:   5    -0.371465726249E+02   -0.48240E-04   -0.10213E-02  1040   0.291E+00    0.120E-01
DAV:   6    -0.371460803784E+02    0.49225E-03   -0.51672E-03  1168   0.208E+00    0.257E-02
DAV:   7    -0.371461492179E+02   -0.68839E-04   -0.83098E-04   928   0.460E-01
  34 F= -.40843043E+02 E0= -.40835019E+02  d E =-.672885E-02  mag=     0.0000
       N       E                     dE             d eps       ncg     rms          rms(c)
DAV:   1    -0.371211744603E+02    0.24906E-01   -0.31164E+01  1008   0.227E+01    0.610E-01
DAV:   2    -0.371793179788E+02   -0.58144E-01   -0.62095E-01  1272   0.575E+00    0.517E-01
DAV:   3    -0.371801169250E+02   -0.79895E-03   -0.12870E-01  1360   0.910E+00    0.508E-01
DAV:   4    -0.371756811515E+02    0.44358E-02   -0.93701E-02  1264   0.791E+00    0.336E-01
DAV:   5    -0.371759794974E+02   -0.29835E-03   -0.62061E-02  1760   0.673E+00    0.283E-01
DAV:   6    -0.371732097736E+02    0.27697E-02   -0.23145E-02  1776   0.426E+00    0.549E-02
DAV:   7    -0.371734231148E+02   -0.21334E-03   -0.24486E-03  1304   0.823E-01    0.407E-02
DAV:   8    -0.371734220698E+02    0.10450E-05   -0.57971E-04   752   0.625E-01
  35 F= -.40851007E+02 E0= -.40842573E+02  d E =-.146928E-01  mag=     0.0000
       N       E                     dE             d eps       ncg     rms          rms(c)
DAV:   1    -0.371776457200E+02   -0.42226E-02   -0.91765E+00  1008   0.123E+01    0.330E-01
DAV:   2    -0.371949521937E+02   -0.17306E-01   -0.18641E-01  1424   0.391E+00    0.310E-01
DAV:   3    -0.371947235157E+02    0.22868E-03   -0.54245E-02  1312   0.592E+00    0.288E-01
DAV:   4    -0.371930724781E+02    0.16510E-02   -0.27492E-02  1184   0.454E+00    0.185E-01
DAV:   5    -0.371933819356E+02   -0.30946E-03   -0.16316E-02  1552   0.345E+00    0.155E-01
DAV:   6    -0.371925153107E+02    0.86662E-03   -0.75780E-03  1352   0.256E+00    0.324E-02
DAV:   7    -0.371925980927E+02   -0.82782E-04   -0.99702E-04   912   0.544E-01
  36 F= -.40858423E+02 E0= -.40849846E+02  d E =-.741653E-02  mag=     0.0000
       N       E                     dE             d eps       ncg     rms          rms(c)
DAV:   1    -0.371941792013E+02   -0.16639E-02   -0.20502E-01  1008   0.186E+00    0.506E-02
DAV:   2    -0.371945618746E+02   -0.38267E-03   -0.40290E-03  1392   0.590E-01    0.423E-02
DAV:   3    -0.371945800892E+02   -0.18215E-04   -0.12559E-03   696   0.925E-01
  37 F= -.40858708E+02 E0= -.40849925E+02  d E =-.770114E-02  mag=     0.0000
       N       E                     dE             d eps       ncg     rms          rms(c)
DAV:   1    -0.371983094167E+02   -0.37475E-02   -0.38864E+00  1008   0.814E+00    0.217E-01
DAV:   2    -0.372049914775E+02   -0.66821E-02   -0.71945E-02  1352   0.220E+00    0.195E-01
DAV:   3    -0.372051586080E+02   -0.16713E-03   -0.12548E-02  1200   0.281E+00    0.172E-01
DAV:   4    -0.372047230330E+02    0.43558E-03   -0.13046E-02   928   0.308E+00    0.124E-01
DAV:   5    -0.372046926048E+02    0.30428E-04   -0.95104E-03   800   0.263E+00    0.102E-01
DAV:   6    -0.372042984089E+02    0.39420E-03   -0.40541E-03   896   0.186E+00    0.342E-02
DAV:   7    -0.372043276790E+02   -0.29270E-04   -0.76641E-04  1024   0.588E-01
  38 F= -.40862459E+02 E0= -.40853764E+02  d E =-.375095E-02  mag=     0.0000
       N       E                     dE             d eps       ncg     rms          rms(c)
DAV:   1    -0.372049168061E+02   -0.61840E-03   -0.29186E-02  1008   0.727E-01    0.215E-02
DAV:   2    -0.372049554645E+02   -0.38658E-04   -0.39396E-04   696   0.180E-01
  39 F= -.40862585E+02 E0= -.40853868E+02  d E =-.387718E-02  mag=     0.0000
       N       E                     dE             d eps       ncg     rms          rms(c)
DAV:   1    -0.372080767677E+02   -0.31600E-02   -0.73127E-01   984   0.352E+00    0.790E-02
DAV:   2    -0.372094228350E+02   -0.13461E-02   -0.14641E-02  1624   0.155E+00    0.874E-02
DAV:   3    -0.372092739526E+02    0.14888E-03   -0.54338E-03  1088   0.188E+00    0.713E-02
DAV:   4    -0.372092066635E+02    0.67289E-04   -0.91310E-04   696   0.741E-01
  40 F= -.40864934E+02 E0= -.40856272E+02  d E =-.234886E-02  mag=     0.0000
       N       E                     dE             d eps       ncg     rms          rms(c)
DAV:   1    -0.372052275465E+02    0.40464E-02   -0.65514E+00   984   0.107E+01    0.241E-01
DAV:   2    -0.372172683005E+02   -0.12041E-01   -0.13019E-01  1440   0.364E+00    0.252E-01
DAV:   3    -0.372171081383E+02    0.16016E-03   -0.19065E-02  1360   0.386E+00    0.194E-01
DAV:   4    -0.372167893175E+02    0.31882E-03   -0.12742E-02   992   0.283E+00    0.156E-01
DAV:   5    -0.372167420485E+02    0.47269E-04   -0.85627E-03   936   0.246E+00    0.127E-01
DAV:   6    -0.372162481385E+02    0.49391E-03   -0.48698E-03  1256   0.206E+00    0.565E-02
DAV:   7    -0.372162167397E+02    0.31399E-04   -0.15924E-03  1040   0.989E-01
  41 F= -.40866507E+02 E0= -.40857855E+02  d E =-.392174E-02  mag=     0.0000
       N       E                     dE             d eps       ncg     rms          rms(c)
DAV:   1    -0.372138131596E+02    0.24350E-02   -0.68259E-01  1000   0.342E+00    0.721E-02
DAV:   2    -0.372149947776E+02   -0.11816E-02   -0.12916E-02  1496   0.122E+00    0.784E-02
DAV:   3    -0.372149645352E+02    0.30242E-04   -0.30788E-03   968   0.139E+00    0.673E-02
DAV:   4    -0.372148975042E+02    0.67031E-04   -0.71218E-04   624   0.704E-01
  42 F= -.40866903E+02 E0= -.40858297E+02  d E =-.431836E-02  mag=     0.0000
       N       E                     dE             d eps       ncg     rms          rms(c)
DAV:   1    -0.372151791345E+02   -0.21460E-03   -0.28652E-02   984   0.796E-01    0.224E-02
DAV:   2    -0.372152954797E+02   -0.11635E-03   -0.17165E-03   736   0.110E+00
  43 F= -.40866945E+02 E0= -.40858247E+02  d E =-.436028E-02  mag=     0.0000
       N       E                     dE             d eps       ncg     rms          rms(c)
DAV:   1    -0.372149553558E+02    0.22378E-03   -0.14790E-02  1456   0.113E+00    0.158E-02
DAV:   2    -0.372151076570E+02   -0.15230E-03   -0.17339E-03   712   0.109E+00
  44 F= -.40867004E+02 E0= -.40858083E+02  d E =-.441894E-02  mag=     0.0000
       N       E                     dE             d eps       ncg     rms          rms(c)
DAV:   1    -0.372149997056E+02   -0.44350E-04   -0.36429E-03  1232   0.101E+00    0.154E-02
DAV:   2    -0.372151333262E+02   -0.13362E-03   -0.14798E-03   784   0.715E-01
  45 F= -.40866906E+02 E0= -.40858210E+02  d E =-.432126E-02  mag=     0.0000
       N       E                     dE             d eps       ncg     rms          rms(c)
DAV:   1    -0.372149955944E+02    0.41112E-05   -0.85208E-04   744   0.664E-01    0.173E-02
DAV:   2    -0.372151241807E+02   -0.12859E-03   -0.15198E-03   648   0.106E+00
  46 F= -.40866959E+02 E0= -.40858122E+02  d E =-.437373E-02  mag=     0.0000
       N       E                     dE             d eps       ncg     rms          rms(c)
DAV:   1    -0.372150934400E+02   -0.97846E-04   -0.12194E-03   680   0.906E-01    0.622E-03
DAV:   2    -0.372151163450E+02   -0.22905E-04   -0.26526E-04   584   0.365E-01
  47 F= -.40866899E+02 E0= -.40858173E+02  d E =-.431350E-02  mag=     0.0000
       N       E                     dE             d eps       ncg     rms          rms(c)
DAV:   1    -0.372150693922E+02    0.24048E-04   -0.21043E-04   552   0.350E-01    0.656E-03
DAV:   2    -0.372150785720E+02   -0.91798E-05   -0.93308E-05   536   0.144E-01
  48 F= -.40866887E+02 E0= -.40858257E+02  d E =-.430192E-02  mag=     0.0000
       N       E                     dE             d eps       ncg     rms          rms(c)
DAV:   1    -0.372151010257E+02   -0.31634E-04   -0.52340E-05   496   0.131E-01    0.428E-03
DAV:   2    -0.372151040597E+02   -0.30340E-05   -0.30380E-05   560   0.152E-01
  49 F= -.40866896E+02 E0= -.40858237E+02  d E =-.431147E-02  mag=     0.0000
       N       E                     dE             d eps       ncg     rms          rms(c)
DAV:   1    -0.372162258447E+02   -0.11248E-02   -0.69051E-01   976   0.339E+00    0.930E-02
DAV:   2    -0.372173223016E+02   -0.10965E-02   -0.12259E-02  1440   0.113E+00    0.804E-02
DAV:   3    -0.372173952460E+02   -0.72944E-04   -0.45614E-03   912   0.180E+00    0.806E-02
DAV:   4    -0.372172338268E+02    0.16142E-03   -0.22672E-03   664   0.122E+00    0.467E-02
DAV:   5    -0.372172871590E+02   -0.53332E-04   -0.90563E-04   656   0.881E-01
  50 F= -.40867878E+02 E0= -.40859432E+02  d E =-.981112E-03  mag=     0.0000
       N       E                     dE             d eps       ncg     rms          rms(c)
DAV:   1    -0.372170415136E+02    0.19231E-03   -0.16402E-02  1312   0.889E-01    0.203E-02
DAV:   2    -0.372170784508E+02   -0.36937E-04   -0.52913E-04   672   0.576E-01
  51 F= -.40867838E+02 E0= -.40859262E+02  d E =-.941378E-03  mag=     0.0000
       N       E                     dE             d eps       ncg     rms          rms(c)
DAV:   1    -0.372191082226E+02   -0.20667E-02   -0.38103E-01   976   0.260E+00    0.568E-02
DAV:   2    -0.372198313991E+02   -0.72318E-03   -0.75807E-03  1480   0.998E-01    0.611E-02
DAV:   3    -0.372197704462E+02    0.60953E-04   -0.17227E-03   744   0.110E+00
  52 F= -.40869269E+02 E0= -.40860449E+02  d E =-.143085E-02  mag=     0.0000
       N       E                     dE             d eps       ncg     rms          rms(c)
DAV:   1    -0.372208434307E+02   -0.10120E-02   -0.14926E-01  1048   0.179E+00    0.617E-02
DAV:   2    -0.372213131094E+02   -0.46968E-03   -0.66894E-03  1520   0.176E+00    0.764E-02
DAV:   3    -0.372210346932E+02    0.27842E-03   -0.42661E-03   704   0.174E+00    0.498E-02
DAV:   4    -0.372210351207E+02   -0.42747E-06   -0.75109E-04   664   0.744E-01
  53 F= -.40869787E+02 E0= -.40860908E+02  d E =-.194900E-02  mag=     0.0000
       N       E                     dE             d eps       ncg     rms          rms(c)
DAV:   1    -0.372219668646E+02   -0.93217E-03   -0.58345E-01   976   0.318E+00    0.725E-02
DAV:   2    -0.372230058270E+02   -0.10390E-02   -0.12011E-02  1520   0.134E+00    0.754E-02
DAV:   3    -0.372229333635E+02    0.72463E-04   -0.40482E-03   960   0.168E+00    0.658E-02
DAV:   4    -0.372228755521E+02    0.57811E-04   -0.11017E-03   624   0.847E-01
  54 F= -.40870200E+02 E0= -.40861317E+02  d E =-.236202E-02  mag=     0.0000
       N       E                     dE             d eps       ncg     rms          rms(c)
DAV:   1    -0.372244761127E+02   -0.15427E-02   -0.19930E-01   976   0.185E+00    0.667E-02
DAV:   2    -0.372247804503E+02   -0.30434E-03   -0.34265E-03  1400   0.915E-01    0.578E-02
DAV:   3    -0.372247846168E+02   -0.41665E-05   -0.10743E-03   712   0.960E-01
  55 F= -.40871304E+02 E0= -.40862635E+02  d E =-.110459E-02  mag=     0.0000
       N       E                     dE             d eps       ncg     rms          rms(c)
DAV:   1    -0.372252410371E+02   -0.46059E-03   -0.13494E+00   960   0.460E+00    0.153E-01
DAV:   2    -0.372287348307E+02   -0.34938E-02   -0.39771E-02  1656   0.378E+00    0.180E-01
DAV:   3    -0.372272241814E+02    0.15106E-02   -0.26274E-02  1792   0.379E+00    0.121E-01
DAV:   4    -0.372271538852E+02    0.70296E-04   -0.43996E-03   896   0.178E+00    0.881E-02
DAV:   5    -0.372271211241E+02    0.32761E-04   -0.27223E-03   960   0.152E+00    0.568E-02
DAV:   6    -0.372270753257E+02    0.45798E-04   -0.85963E-04   760   0.887E-01
  56 F= -.40871841E+02 E0= -.40862901E+02  d E =-.164086E-02  mag=     0.0000
       N       E                     dE             d eps       ncg     rms          rms(c)
DAV:   1    -0.372264706723E+02    0.65045E-03   -0.21620E-01   960   0.178E+00    0.538E-02
DAV:   2    -0.372267959125E+02   -0.32524E-03   -0.34565E-03  1440   0.599E-01    0.501E-02
DAV:   3    -0.372267664482E+02    0.29464E-04   -0.70929E-04   736   0.740E-01
  57 F= -.40872162E+02 E0= -.40863370E+02  d E =-.196169E-02  mag=     0.0000
       N       E                     dE             d eps       ncg     rms          rms(c)
DAV:   1    -0.372292647618E+02   -0.24688E-02   -0.29385E-01   968   0.229E+00    0.518E-02
DAV:   2    -0.372301765318E+02   -0.91177E-03   -0.10852E-02  1408   0.222E+00    0.880E-02
DAV:   3    -0.372296362157E+02    0.54032E-03   -0.72257E-03   952   0.196E+00    0.393E-02
DAV:   4    -0.372296972913E+02   -0.61076E-04   -0.92095E-04   912   0.496E-01
  58 F= -.40873745E+02 E0= -.40864760E+02  d E =-.158303E-02  mag=     0.0000
       N       E                     dE             d eps       ncg     rms          rms(c)
DAV:   1    -0.372323158373E+02   -0.26796E-02   -0.92986E-01   968   0.391E+00    0.963E-02
DAV:   2    -0.372337586420E+02   -0.14428E-02   -0.15227E-02  1408   0.115E+00    0.976E-02
DAV:   3    -0.372337050317E+02    0.53610E-04   -0.23725E-03  1040   0.130E+00    0.778E-02
DAV:   4    -0.372337244444E+02   -0.19413E-04   -0.22333E-03   688   0.124E+00    0.637E-02
DAV:   5    -0.372337079117E+02    0.16533E-04   -0.29686E-03   704   0.135E+00    0.485E-02
DAV:   6    -0.372336239811E+02    0.83931E-04   -0.90247E-04   688   0.814E-01
  59 F= -.40875449E+02 E0= -.40866469E+02  d E =-.328694E-02  mag=     0.0000
       N       E                     dE             d eps       ncg     rms          rms(c)
DAV:   1    -0.372320762797E+02    0.16316E-02   -0.37139E+00   968   0.778E+00    0.176E-01
DAV:   2    -0.372383694144E+02   -0.62931E-02   -0.64579E-02  1472   0.275E+00    0.195E-01
DAV:   3    -0.372377351698E+02    0.63424E-03   -0.11360E-02  1248   0.287E+00    0.139E-01
DAV:   4    -0.372376819493E+02    0.53221E-04   -0.19102E-03  1088   0.111E+00
  60 F= -.40875599E+02 E0= -.40866508E+02  d E =-.343755E-02  mag=     0.0000
       N       E                     dE             d eps       ncg     rms          rms(c)
DAV:   1    -0.372336175628E+02    0.41176E-02   -0.14929E+00   968   0.496E+00    0.969E-02
DAV:   2    -0.372368932003E+02   -0.32756E-02   -0.38172E-02  1696   0.358E+00    0.155E-01
DAV:   3    -0.372358988032E+02    0.99440E-03   -0.21031E-02  1760   0.348E+00    0.948E-02
DAV:   4    -0.372357438169E+02    0.15499E-03   -0.24796E-03   808   0.124E+00    0.696E-02
DAV:   5    -0.372357505570E+02   -0.67401E-05   -0.74574E-04   760   0.611E-01
  61 F= -.40876065E+02 E0= -.40866968E+02  d E =-.390348E-02  mag=     0.0000
       N       E                     dE             d eps       ncg     rms          rms(c)
DAV:   1    -0.372362070902E+02   -0.46327E-03   -0.40566E-02  1088   0.941E-01    0.316E-02
DAV:   2    -0.372363253632E+02   -0.11827E-03   -0.15156E-03   800   0.860E-01
  62 F= -.40876230E+02 E0= -.40867428E+02  d E =-.406852E-02  mag=     0.0000
       N       E                     dE             d eps       ncg     rms          rms(c)
DAV:   1    -0.372370407120E+02   -0.83362E-03   -0.19698E-01  1216   0.216E+00    0.403E-02
DAV:   2    -0.372372967530E+02   -0.25604E-03   -0.31078E-03  1160   0.131E+00    0.529E-02
DAV:   3    -0.372372183524E+02    0.78401E-04   -0.23771E-03   704   0.119E+00    0.324E-02
DAV:   4    -0.372372170947E+02    0.12577E-05   -0.56769E-04   624   0.533E-01
  63 F= -.40876890E+02 E0= -.40867838E+02  d E =-.659969E-03  mag=     0.0000
       N       E                     dE             d eps       ncg     rms          rms(c)
DAV:   1    -0.372375098573E+02   -0.29150E-03   -0.15128E-01   992   0.161E+00    0.313E-02
DAV:   2    -0.372379850271E+02   -0.47517E-03   -0.60045E-03  1504   0.149E+00    0.638E-02
DAV:   3    -0.372377078183E+02    0.27721E-03   -0.33381E-03   728   0.143E+00    0.277E-02
DAV:   4    -0.372377364994E+02   -0.28681E-04   -0.33641E-04   600   0.263E-01
  64 F= -.40877215E+02 E0= -.40868122E+02  d E =-.984486E-03  mag=     0.0000
