 vasp.6.3.2 27Jun22 (build Aug 17 2022 15:43:34) complex                        
  
 executed on           tv2STDVTST date 2025.02.04  14:10:28
 running   20 mpi-ranks, with    1 threads/rank
 distrk:  each k-point on   20 cores,    1 groups
 distr:  one band on NCORE=   5 cores,    4 groups


--------------------------------------------------------------------------------------------------------


 -----------------------------------------------------------------------------
|                                                                             |
|           W    W    AA    RRRRR   N    N  II  N    N   GGGG   !!!           |
|           W    W   A  A   R    R  NN   N  II  NN   N  G    G  !!!           |
|           W    W  A    A  R    R  N N  N  II  N N  N  G       !!!           |
|           W WW W  AAAAAA  RRRRR   N  N N  II  N  N N  G  GGG   !            |
|           WW  WW  A    A  R   R   N   NN  II  N   NN  G    G                |
|           W    W  A    A  R    R  N    N  II  N    N   GGGG   !!!           |
|                                                                             |
|     Found issues when parsing the INCAR file                                |
|     In line 61: Tagname --- R W I G S contains invalid characters.          |
|     Please check if the interpretation in the OUTCAR file is correct.       |
|                                                                             |
 -----------------------------------------------------------------------------

 INCAR:
    = \=\=\=\=\=\=\=\=\=\=\=\=\=\=\=\=\=\=\=\=\=\=\=\=\=\=\=\=\=\=\=\=\=\=\=\=\=\=\=\=\=\=\=\=\=\=\=\=\=\=\=\=\=\=\=\=\=\=\=\=\=\=\=\=\=\=\=\=\=\=\=\=
    = \=\=\=\=\=\=\=\=\=\=\=\=\=\=\=\=\=\=\=\=\=\=\=\=\=\=\=\=\=\=\=\=\=\=\=\=\=\=\=\=\=\=\=\=\=\=\=\=\=\=\=\=\=\=\=\=\=\=\=\=\=\=\=\=\=\=\=\=\=\=\=\=
   ISTART = 0
   ICHARG = 2
   IPIPOL = 3
   IVDW = 11
    = \=\=\=\=\=\=\=\=\=\=\=\=\=\=\=\=\=\=\=\=\=\=\=\=\=\=\=\=\=\=\=\=\=\=\=\=\=\=\=\=\=\=\=\=\=\=\=\=\=\=\=\=\=\=\=\=\=\=\=\=\=\=\=\=\=\=\=\=\=\=\=\=
    = \=\=\=\=\=\=\=\=\=\=\=\=\=\=\=\=\=\=\=\=\=\=\=\=\=\=\=\=\=\=\=\=\=\=\=\=\=\=\=\=\=\=\=\=\=\=\=\=\=\=\=\=\=\=\=\=\=\=\=\=\=\=\=\=\=\=\=\=\=\=\=\=
   ISPIN = 2
    = \=\=\=\=\=\=\=\=\=\=\=\=\=\=\=\=\=\=\=\=\=\=\=\=\=\=\=\=\=\=\=\=\=\=\=\=\=\=\=\=\=\=\=\=\=\=\=\=\=\=\=\=\=\=\=\=\=\=\=\=\=\=\=\=\=\=\=\=\=\=\=\=
    = \=\=\=\=\=\=\=\=\=\=\=\=\=\=\=\=\=\=\=\=\=\=\=\=\=\=\=\=\=\=\=\=\=\=\=\=\=\=\=\=\=\=\=\=\=\=\=\=\=\=\=\=\=\=\=\=\=\=\=\=\=\=\=\=\=\=\=\=\=\=\=\=
   ENCUT = 400
   PREC = Normal
   EDIFF = 2E-04
   GGA = PE
   ISMEAR = 1
   SIGMA = 0.2
   LREAL = .FALSE.
    = \=\=\=\=\=\=\=\=\=\=\=\=\=\=\=\=\=\=\=\=\=\=\=\=\=\=\=\=\=\=\=\=\=\=\=\=\=\=\=\=\=\=\=\=\=\=\=\=\=\=\=\=\=\=\=\=\=\=\=\=\=\=\=\=\=\=\=\=\=\=\=\=
    = \=\=\=\=\=\=\=\=\=\=\=\=\=\=\=\=\=\=\=\=\=\=\=\=\=\=\=\=\=\=\=\=\=\=\=\=\=\=\=\=\=\=\=\=\=\=\=\=\=\=\=\=\=\=\=\=\=\=\=\=\=\=\=\=\=\=\=\=\=\=\=\=
   ISYM = 1
   NSW = 800
   IBRION = 2
   POTIM = 0.5
   ISIF = 2
   EDIFFG = -.03
    = \=\=\=\=\=\=\=\=\=\=\=\=\=\=\=\=\=\=\=\=\=\=\=\=\=\=\=\=\=\=\=\=\=\=\=\=\=\=\=\=\=\=\=\=\=\=\=\=\=\=\=\=\=\=\=\=\=\=\=\=\=\=\=\=\=\=\=\=\=\=\=\=
    = \=\=\=\=\=\=\=\=\=\=\=\=\=\=\=\=\=\=\=\=\=\=\=\=\=\=\=\=\=\=\=\=\=\=\=\=\=\=\=\=\=\=\=\=\=\=\=\=\=\=\=\=\=\=\=\=\=\=\=\=\=\=\=\=\=\=\=\=\=\=\=\=
   NPAR = 4
   LWAVE = .FALSE.
   LCHARG = .FALSE.

 POTCAR:    PAW_PBE Cu 22Jun2005                  
 POTCAR:    PAW_PBE H 15Jun2001                   
 -----------------------------------------------------------------------------
|                                                                             |
|           W    W    AA    RRRRR   N    N  II  N    N   GGGG   !!!           |
|           W    W   A  A   R    R  NN   N  II  NN   N  G    G  !!!           |
|           W    W  A    A  R    R  N N  N  II  N N  N  G       !!!           |
|           W WW W  AAAAAA  RRRRR   N  N N  II  N  N N  G  GGG   !            |
|           WW  WW  A    A  R   R   N   NN  II  N   NN  G    G                |
|           W    W  A    A  R    R  N    N  II  N    N   GGGG   !!!           |
|                                                                             |
|     You use a magnetic or noncollinear calculation, but did not specify     |
|     the initial magnetic moment with the MAGMOM tag. Note that a            |
|     default of 1 will be used for all atoms. This ferromagnetic setup       |
|     may break the symmetry of the crystal, in particular it may rule        |
|     out finding an antiferromagnetic solution. Thence, we recommend         |
|     setting the initial magnetic moment manually or verifying carefully     |
|     that this magnetic setup is desired.                                    |
|                                                                             |
 -----------------------------------------------------------------------------

 POTCAR:    PAW_PBE Cu 22Jun2005                  
   SHA256 =  0e71e558f37a4e8407882b4609ceaae59938afaad9ced71dfe8490308a0ab630 Cu/POTCAR             
   COPYR  = (c) Copyright 22Jun2005 Georg Kresse                                                    
   COPYR  = This file is part of the software VASP. Any use, copying, and all other rights are regul
   COPYR  = If you do not have a valid VASP license, you may not use, copy or distribute this file. 
   VRHFIN =Cu: d10 p1                                                                               
   LEXCH  = PE                                                                                      
   EATOM  =  1390.9808 eV,  102.2342 Ry                                                             
                                                                                                    
   TITEL  = PAW_PBE Cu 22Jun2005                                                                    
   LULTRA =        F    use ultrasoft PP ?                                                          
   IUNSCR =        1    unscreen: 0-lin 1-nonlin 2-no                                               
   RPACOR =    2.000    partial core radius                                                         
   POMASS =   63.546; ZVAL   =   11.000    mass and valenz                                          
   RCORE  =    2.300    outmost cutoff radius                                                       
   RWIGS  =    2.200; RWIGS  =    1.164    wigner-seitz radius (au A)                               
   ENMAX  =  295.446; ENMIN  =  221.585 eV                                                          
   ICORE  =        3    local potential                                                             
   LCOR   =        T    correct aug charges                                                         
   LPAW   =        T    paw PP                                                                      
   EAUG   =  586.980                                                                                
   DEXC   =    0.000                                                                                
   RMAX   =    2.344    core radius for proj-oper                                                   
   RAUG   =    1.300    factor for augmentation sphere                                              
   RDEP   =    2.302    radius for radial grids                                                     
   RDEPT  =    1.771    core radius for aug-charge                                                  
                                                                                                    
   Atomic configuration                                                                             
    9 entries                                                                                       
     n  l   j            E        occ.                                                              
     1  0  0.50     -8850.2468   2.0000                                                             
     2  0  0.50     -1062.3498   2.0000                                                             
     2  1  1.50      -916.8226   6.0000                                                             
     3  0  0.50      -114.6929   2.0000                                                             
     3  1  1.50       -72.1325   6.0000                                                             
     3  2  2.50        -5.0394  10.0000                                                             
     4  0  0.50        -4.6097   1.0000                                                             
     4  1  0.50        -4.0817   0.0000                                                             
     4  3  2.50        -1.3606   0.0000                                                             
   Description                                                                                      
     l       E           TYP  RCUT    TYP  RCUT                                                     
     2     -5.0393973     23  2.200                                                                 
     2     10.8846608     23  2.200                                                                 
     0     -4.6097109     23  2.200                                                                 
     0      8.2520465     23  2.200                                                                 
     1     -2.7211652     23  2.200                                                                 
     1     21.7055443     23  2.200                                                                 
     3      2.7211652     23  2.300                                                                 
  local pseudopotential read in
  partial core-charges read in
  partial kinetic energy density read in
  atomic valenz-charges read in
  non local Contribution for L=           2  read in
    real space projection operators read in
  non local Contribution for L=           2  read in
    real space projection operators read in
  non local Contribution for L=           0  read in
    real space projection operators read in
  non local Contribution for L=           0  read in
    real space projection operators read in
  non local Contribution for L=           1  read in
    real space projection operators read in
  non local Contribution for L=           1  read in
    real space projection operators read in
    PAW grid and wavefunctions read in
 
   number of l-projection  operators is LMAX  =           6
   number of lm-projection operators is LMMAX =          18
 
 POTCAR:    PAW_PBE H 15Jun2001                   
   SHA256 =  030f79b5d3ab3cf0e668861823c8fb652ff669f3e15e46930bd03bfd63a607b6 H/POTCAR              
   COPYR  = (c) Copyright 15Jun2001 Georg Kresse                                                    
   COPYR  = This file is part of the software VASP. Any use, copying, and all other rights are regul
   COPYR  = If you do not have a valid VASP license, you may not use, copy or distribute this file. 
   VRHFIN =H: ultrasoft test                                                                        
   LEXCH  = PE                                                                                      
   EATOM  =    12.4884 eV,    0.9179 Ry                                                             
                                                                                                    
   TITEL  = PAW_PBE H 15Jun2001                                                                     
   LULTRA =        F    use ultrasoft PP ?                                                          
   IUNSCR =        0    unscreen: 0-lin 1-nonlin 2-no                                               
   RPACOR =    0.000    partial core radius                                                         
   POMASS =    1.000; ZVAL   =    1.000    mass and valenz                                          
   RCORE  =    1.100    outmost cutoff radius                                                       
   RWIGS  =    0.700; RWIGS  =    0.370    wigner-seitz radius (au A)                               
   ENMAX  =  250.000; ENMIN  =  200.000 eV                                                          
   RCLOC  =    0.701    cutoff for local pot                                                        
   LCOR   =        T    correct aug charges                                                         
   LPAW   =        T    paw PP                                                                      
   EAUG   =  400.000                                                                                
   RMAX   =    1.123    core radius for proj-oper                                                   
   RAUG   =    1.200    factor for augmentation sphere                                              
   RDEP   =    1.112    radius for radial grids                                                     
   RDEPT  =    0.926    core radius for aug-charge                                                  
                                                                                                    
   Atomic configuration                                                                             
    2 entries                                                                                       
     n  l   j            E        occ.                                                              
     1  0  0.50        -6.4927   1.0000                                                             
     2  1  0.50        -3.4015   0.0000                                                             
   Description                                                                                      
     l       E           TYP  RCUT    TYP  RCUT                                                     
     0     -6.4927494     23  1.100                                                                 
     0      6.8029130     23  1.100                                                                 
     1     -4.0817478     23  1.100                                                                 
  local pseudopotential read in
  atomic valenz-charges read in
  non local Contribution for L=           0  read in
    real space projection operators read in
  non local Contribution for L=           0  read in
    real space projection operators read in
  non local Contribution for L=           1  read in
    real space projection operators read in
    PAW grid and wavefunctions read in
 
   number of l-projection  operators is LMAX  =           3
   number of lm-projection operators is LMMAX =           5
 
  PAW_PBE Cu 22Jun2005                  :
 energy of atom  1       EATOM=-1390.9808
 kinetic energy error for atom=    0.0232 (will be added to EATOM!!)
  PAW_PBE H 15Jun2001                   :
 energy of atom  2       EATOM=  -12.4884
 kinetic energy error for atom=    0.0098 (will be added to EATOM!!)
 
 
 POSCAR: FCC Cu
  positions in cartesian coordinates
  No initial velocities read in
 exchange correlation table for  LEXCH =        8
   RHO(1)=    0.500       N(1)  =     2000
   RHO(2)=  100.500       N(2)  =     4000

 VTST: version 4.2, (08/11/21)

 CHAIN: initializing optimizer
 
 OPT: Using VASP Conjugate-Gradient optimizer
 CHAIN: Read ICHAIN            0
 
 POSCAR: FCC Cu
  positions in cartesian coordinates
  No initial velocities read in
 


--------------------------------------------------------------------------------------------------------


 ion  position               nearest neighbor table
   1  0.000  0.000  0.000-   2 2.57   2 2.57   2 2.57
   2  0.333  0.333  0.071-   3 2.51   3 2.51   3 2.51   1 2.57   1 2.57   1 2.57
   3  0.667  0.667  0.139-   2 2.51   2 2.51   2 2.51   4 2.53   4 2.53   4 2.53
   4  0.000  0.000  0.208-   5 2.51   5 2.51   5 2.51   3 2.53   3 2.53   3 2.53
   5  0.333  0.333  0.277-   4 2.51   4 2.51   4 2.51   6 2.53   6 2.53   6 2.53
   6  0.667  0.667  0.346-   7 2.51   7 2.51   7 2.51   5 2.53   5 2.53   5 2.53
   7  0.000  0.000  0.414-   8 2.49   8 2.49   8 2.49   6 2.51   6 2.51   6 2.51
   8  0.333  0.333  0.481-   7 2.49   7 2.49   7 2.49
   9  0.833  0.333  0.534-  10 0.75
  10  0.666  0.669  0.534-   9 0.75
 
  LATTYP: Found a hexagonal cell.
 ALAT       =     2.5667977333
 C/A-ratio  =    11.5593335643
  
  Lattice vectors:
  
 A1 = (  -1.2833988667,  -2.2229120434,   0.0000000000)
 A2 = (   2.5667977333,   0.0000000000,   0.0000000000)
 A3 = (   0.0000000000,   0.0000000000,  29.6704711914)


Analysis of symmetry for initial positions (statically):
=====================================================================
 Subroutine PRICEL returns:
 Original cell was already a primitive cell.
 

 Routine SETGRP: Setting up the symmetry group for a 
 hexagonal supercell.


 Subroutine GETGRP returns: Found  2 space group operations
 (whereof  2 operations were pure point group operations)
 out of a pool of 24 trial point group operations.


The static configuration has the point symmetry C_1h.


Analysis of symmetry for dynamics (positions and initial velocities):
=====================================================================
 Subroutine PRICEL returns:
 Original cell was already a primitive cell.
 

 Routine SETGRP: Setting up the symmetry group for a 
 hexagonal supercell.


 Subroutine GETGRP returns: Found  2 space group operations
 (whereof  2 operations were pure point group operations)
 out of a pool of 24 trial point group operations.


The dynamic configuration has the point symmetry C_1h.


Analysis of structural, dynamic, and magnetic symmetry:
=====================================================================
 Subroutine PRICEL returns:
 Original cell was already a primitive cell.
 

 Routine SETGRP: Setting up the symmetry group for a 
 hexagonal supercell.


 Subroutine GETGRP returns: Found  2 space group operations
 (whereof  2 operations were pure point group operations)
 out of a pool of 24 trial point group operations.


The overall configuration has the point symmetry C_1h.


 Subroutine INISYM returns: Found  2 space group operations
 (whereof  2 operations are pure point group operations),
 and found     1 'primitive' translations


----------------------------------------------------------------------------------------

                                     Primitive cell                                     

  volume of cell :     169.2928

  direct lattice vectors                    reciprocal lattice vectors
     2.566797733  0.000000000  0.000000000     0.389590495 -0.224930177  0.000000000
     1.283398867  2.222912043  0.000000000     0.000000000  0.449860355  0.000000000
     0.000000000  0.000000000 29.670471191     0.000000000  0.000000000  0.033703543

  length of vectors
     2.566797733  2.566797733 29.670471191     0.449860355  0.449860355  0.033703543

  position of ions in fractional coordinates (direct lattice)
     0.000000000  0.000000000  0.000000000
     0.333333333  0.333333333  0.070635264
     0.666666667  0.666666667  0.139085938
     0.000000000  0.000000000  0.208165116
     0.333333333  0.333333333  0.276562395
     0.666666667  0.666666667  0.345560339
     0.000000000  0.000000000  0.414005934
     0.333333333  0.333333333  0.481392695
     0.833333334  0.333333333  0.534259303
     0.665535421  0.668929158  0.534259303

  ion indices of the primitive-cell ions
   primitive index   ion index
                 1           1
                 2           2
                 3           3
                 4           4
                 5           5
                 6           6
                 7           7
                 8           8
                 9           9
                10          10

----------------------------------------------------------------------------------------

 
 
 KPOINTS: Auto-mesh                               

Automatic generation of k-mesh.
 Grid dimensions read from file:
 generate k-points for:    3    3    1

 Generating k-lattice:

  Cartesian coordinates                     Fractional coordinates (reciprocal lattice)
     0.129863498 -0.074976726  0.000000000     0.333333333  0.000000000  0.000000000
     0.000000000  0.149953452  0.000000000     0.000000000  0.333333333  0.000000000
     0.000000000  0.000000000  0.033703543     0.000000000  0.000000000  1.000000000

  Length of vectors
     0.149953452  0.149953452  0.033703543

  Shift w.r.t. Gamma in fractional coordinates (k-lattice)
     0.000000000  0.000000000  0.000000000

 
 Subroutine IBZKPT returns following result:
 ===========================================
 
 Found      4 irreducible k-points:
 
 Following reciprocal coordinates:
            Coordinates               Weight
  0.000000  0.000000  0.000000      1.000000
  0.333333  0.000000  0.000000      4.000000
  0.000000  0.333333  0.000000      2.000000
 -0.333333  0.333333  0.000000      2.000000
 
 Following cartesian coordinates:
            Coordinates               Weight
  0.000000  0.000000  0.000000      1.000000
  0.129863 -0.074977  0.000000      4.000000
  0.000000  0.149953  0.000000      2.000000
 -0.129863  0.224930  0.000000      2.000000
 


--------------------------------------------------------------------------------------------------------




 Dimension of arrays:
   k-points           NKPTS =      4   k-points in BZ     NKDIM =      4   number of bands    NBANDS=     60
   number of dos      NEDOS =    301   number of ions     NIONS =     10
   non local maximal  LDIM  =      6   non local SUM 2l+1 LMDIM =     18
   total plane-waves  NPLWV =  29400
   max r-space proj   IRMAX =      1   max aug-charges    IRDMAX=   5229
   dimension x,y,z NGX =    14 NGY =   14 NGZ =  150
   dimension x,y,z NGXF=    28 NGYF=   28 NGZF=  300
   support grid    NGXF=    28 NGYF=   28 NGZF=  300
   ions per type =               8   2
   NGX,Y,Z   is equivalent  to a cutoff of   9.07,  9.07,  8.40 a.u.
   NGXF,Y,Z  is equivalent  to a cutoff of  18.13, 18.13, 16.81 a.u.

 SYSTEM =  unknown system                          
 POSCAR =  FCC Cu                                  

 Startparameter for this run:
   NWRITE =      2    write-flag & timer
   PREC   = normal    normal or accurate (medium, high low for compatibility)
   ISTART =      0    job   : 0-new  1-cont  2-samecut
   ICHARG =      2    charge: 1-file 2-atom 10-const
   ISPIN  =      2    spin polarized calculation?
   LNONCOLLINEAR =      F non collinear calculations
   LSORBIT =      F    spin-orbit coupling
   INIWAV =      1    electr: 0-lowe 1-rand  2-diag
   LASPH  =      F    aspherical Exc in radial PAW
 Electronic Relaxation 1
   ENCUT  =  400.0 eV  29.40 Ry    5.42 a.u.   4.19  4.19 48.39*2*pi/ulx,y,z
   ENINI  =  400.0     initial cutoff
   ENAUG  =  587.0 eV  augmentation charge cutoff
   NELM   =     60;   NELMIN=  2; NELMDL= -5     # of ELM steps 
   EDIFF  = 0.2E-03   stopping-criterion for ELM
   LREAL  =      F    real-space projection
   NLSPLINE    = F    spline interpolate recip. space projectors
   LCOMPAT=      F    compatible to vasp.4.4
   GGA_COMPAT  = T    GGA compatible to vasp.4.4-vasp.4.6
   LMAXPAW     = -100 max onsite density
   LMAXMIX     =    2 max onsite mixed and CHGCAR
   VOSKOWN=      0    Vosko Wilk Nusair interpolation
   ROPT   =    0.00000   0.00000
 Ionic relaxation
   EDIFFG = -.3E-01   stopping-criterion for IOM
   NSW    =    800    number of steps for IOM
   NBLOCK =      1;   KBLOCK =    800    inner block; outer block 
   IBRION =      2    ionic relax: 0-MD 1-quasi-New 2-CG
   NFREE  =      1    steps in history (QN), initial steepest desc. (CG)
   ISIF   =      2    stress and relaxation
   IWAVPR =     11    prediction:  0-non 1-charg 2-wave 3-comb
   ISYM   =      1    0-nonsym 1-usesym 2-fastsym
   LCORR  =      T    Harris-Foulkes like correction to forces

   POTIM  = 0.5000    time-step for ionic-motion
   TEIN   =    0.0    initial temperature
   TEBEG  =    0.0;   TEEND  =   0.0 temperature during run
   SMASS  =  -3.00    Nose mass-parameter (am)
   estimated Nose-frequenzy (Omega)   =  0.10E-29 period in steps = 0.13E+47 mass=  -0.151E-27a.u.
   SCALEE = 1.0000    scale energy and forces
   NPACO  =    256;   APACO  = 10.0  distance and # of slots for P.C.
   PSTRESS=    0.0 pullay stress

  Mass of Ions in am
   POMASS =  63.55  1.00
  Ionic Valenz
   ZVAL   =  11.00  1.00
  Atomic Wigner-Seitz radii
   RWIGS  =  -1.00 -1.00
  virtual crystal weights 
   VCA    =   1.00  1.00
   NELECT =      90.0000    total number of electrons
   NUPDOWN=      -1.0000    fix difference up-down

 DOS related values:
   EMIN   =  10.00;   EMAX   =-10.00  energy-range for DOS
   EFERMI =   0.00
   ISMEAR =     1;   SIGMA  =   0.20  broadening in eV -4-tet -1-fermi 0-gaus

 Electronic relaxation 2 (details)
   IALGO  =     38    algorithm
   LDIAG  =      T    sub-space diagonalisation (order eigenvalues)
   LSUBROT=      F    optimize rotation matrix (better conditioning)
   TURBO    =      0    0=normal 1=particle mesh
   IRESTART =      0    0=no restart 2=restart with 2 vectors
   NREBOOT  =      0    no. of reboots
   NMIN     =      0    reboot dimension
   EREF     =   0.00    reference energy to select bands
   IMIX   =      4    mixing-type and parameters
     AMIX     =   0.40;   BMIX     =  1.00
     AMIX_MAG =   1.60;   BMIX_MAG =  1.00
     AMIN     =   0.10
     WC   =   100.;   INIMIX=   1;  MIXPRE=   1;  MAXMIX= -45

 Intra band minimization:
   WEIMIN = 0.0010     energy-eigenvalue tresh-hold
   EBREAK =  0.83E-06  absolut break condition
   DEPER  =   0.30     relativ break condition  

   TIME   =   0.40     timestep for ELM

  volume/ion in A,a.u.               =      16.93       114.24
  Fermi-wavevector in a.u.,A,eV,Ry     =   1.326202  2.506158 23.930072  1.758811
  Thomas-Fermi vector in A             =   2.455606
 
 Write flags
   LWAVE        =      F    write WAVECAR
   LDOWNSAMPLE  =      F    k-point downsampling of WAVECAR
   LCHARG       =      F    write CHGCAR
   LVTOT        =      F    write LOCPOT, total local potential
   LVHAR        =      F    write LOCPOT, Hartree potential only
   LELF         =      F    write electronic localiz. function (ELF)
   LORBIT       =      0    0 simple, 1 ext, 2 COOP (PROOUT), +10 PAW based schemes


 Dipole corrections
   LMONO  =      F    monopole corrections only (constant potential shift)
   LDIPOL =      F    correct potential (dipole corrections)
   IDIPOL =      0    1-x, 2-y, 3-z, 4-all directions 
   EPSILON=  1.0000000 bulk dielectric constant

 Exchange correlation treatment:
   GGA     =    PE    GGA type
   LEXCH   =     8    internal setting for exchange type
   LIBXC   =     F    Libxc                    
   VOSKOWN =     0    Vosko Wilk Nusair interpolation
   LHFCALC =     F    Hartree Fock is set to
   LHFONE  =     F    Hartree Fock one center treatment
   AEXX    =    0.0000 exact exchange contribution

 Linear response parameters
   LEPSILON=     F    determine dielectric tensor
   LRPA    =     F    only Hartree local field effects (RPA)
   LNABLA  =     F    use nabla operator in PAW spheres
   LVEL    =     F    velocity operator in full k-point grid
   CSHIFT  =0.1000    complex shift for real part using Kramers Kronig
   OMEGAMAX=  -1.0    maximum frequency
   DEG_THRESHOLD= 0.2000000E-02 threshold for treating states as degnerate
   RTIME   =   -0.100 relaxation time in fs
  (WPLASMAI=    0.000 imaginary part of plasma frequency in eV, 0.658/RTIME)
   DFIELD  = 0.0000000 0.0000000 0.0000000 field for delta impulse in time
 
  Optional k-point grid parameters
   LKPOINTS_OPT  =     F    use optional k-point grid
   KPOINTS_OPT_MODE=     1    mode for optional k-point grid
 
 Orbital magnetization related:
   ORBITALMAG=     F  switch on orbital magnetization
   LCHIMAG   =     F  perturbation theory with respect to B field
   DQ        =  0.001000  dq finite difference perturbation B field
   LLRAUG    =     F  two centre corrections for induced B field



--------------------------------------------------------------------------------------------------------


 conjugate gradient relaxation of ions
 charge density and potential will be updated during run
 spin polarized calculation
 Variant of blocked Davidson
 Davidson routine will perform the subspace rotation
 perform sub-space diagonalisation
    after iterative eigenvector-optimisation
 modified Broyden-mixing scheme, WC =      100.0
 initial mixing is a Kerker type mixing with AMIX =  0.4000 and BMIX =      1.0000
 Hartree-type preconditioning will be used
 using additional bands           15
 reciprocal scheme for non local part
 use partial core corrections
 calculate Harris-corrections to forces 
   (improved forces if not selfconsistent)
 use gradient corrections 
 use of overlap-Matrix (Vanderbilt PP)
 Methfessel and Paxton  Order N= 1 SIGMA  =   0.20


--------------------------------------------------------------------------------------------------------


  energy-cutoff  :      400.00
  volume of cell :      169.29
      direct lattice vectors                 reciprocal lattice vectors
     2.566797733  0.000000000  0.000000000     0.389590495 -0.224930177  0.000000000
     1.283398867  2.222912043  0.000000000     0.000000000  0.449860355  0.000000000
     0.000000000  0.000000000 29.670471191     0.000000000  0.000000000  0.033703543

  length of vectors
     2.566797733  2.566797733 29.670471191     0.449860355  0.449860355  0.033703543


 
 k-points in units of 2pi/SCALE and weight: Auto-mesh                               
   0.00000000  0.00000000  0.00000000       0.111
   0.12986350 -0.07497673  0.00000000       0.444
   0.00000000  0.14995345  0.00000000       0.222
  -0.12986350  0.22493018  0.00000000       0.222
 
 k-points in reciprocal lattice and weights: Auto-mesh                               
   0.00000000  0.00000000  0.00000000       0.111
   0.33333333  0.00000000  0.00000000       0.444
   0.00000000  0.33333333  0.00000000       0.222
  -0.33333333  0.33333333  0.00000000       0.222
 
 position of ions in fractional coordinates (direct lattice) 
   0.00000000  0.00000000  0.00000000
   0.33333333  0.33333333  0.07063526
   0.66666667  0.66666667  0.13908594
   0.00000000  0.00000000  0.20816512
   0.33333333  0.33333333  0.27656240
   0.66666667  0.66666667  0.34556034
   0.00000000  0.00000000  0.41400593
   0.33333333  0.33333333  0.48139269
   0.83333333  0.33333333  0.53425930
   0.66553542  0.66892916  0.53425930
 
 position of ions in cartesian coordinates  (Angst):
   0.00000000  0.00000000  0.00000000
   1.28339887  0.74097068  2.09578157
   2.56679773  1.48194136  4.12674532
   0.00000000  0.00000000  6.17635708
   1.28339887  0.74097068  8.20573658
   2.56679773  1.48194136 10.25293808
   0.00000000  0.00000000 12.28375114
   1.28339887  0.74097068 14.28314809
   2.56679773  0.74097068 15.85172525
   2.56679773  1.48697068 15.85172525
 


--------------------------------------------------------------------------------------------------------


 k-point   1 :   0.0000 0.0000 0.0000  plane waves:    3091
 k-point   2 :   0.3333 0.0000 0.0000  plane waves:    3081
 k-point   3 :   0.0000 0.3333 0.0000  plane waves:    3081
 k-point   4 :  -0.3333 0.3333 0.0000  plane waves:    3096

 maximum and minimum number of plane-waves per node :       634      594

 maximum number of plane-waves:      3096
 maximum index in each direction: 
   IXMAX=    4   IYMAX=    4   IZMAX=   48
   IXMIN=   -4   IYMIN=   -4   IZMIN=  -48


 parallel 3D FFT for wavefunctions:
    minimum data exchange during FFTs selected (reduces bandwidth)
 parallel 3D FFT for charge:
    minimum data exchange during FFTs selected (reduces bandwidth)


 total amount of memory used by VASP MPI-rank0    34706. kBytes
=======================================================================

   base      :      30000. kBytes
   nonl-proj :        813. kBytes
   fftplans  :        716. kBytes
   grid      :       1856. kBytes
   one-center:         62. kBytes
   wavefun   :       1259. kBytes
 
     INWAV:  cpu time      0.0000: real time      0.0004
 Broyden mixing: mesh for mixing (old mesh)
   NGX =  9   NGY =  9   NGZ = 97
  (NGX  = 28   NGY  = 28   NGZ  =300)
  gives a total of   7857 points

 initial charge density was supplied:
 charge density of overlapping atoms calculated
 number of electron      90.0000000 magnetization      10.0000000
 keeping initial charge density in first step


--------------------------------------------------------------------------------------------------------


 Maximum index for augmentation-charges          479 (set IRDMAX)


--------------------------------------------------------------------------------------------------------


 First call to EWALD:  gamma=   0.320
 Maximum number of real-space cells 6x 6x 1
 Maximum number of reciprocal cells 2x 2x13

    FEWALD:  cpu time      0.0019: real time      0.0019


--------------------------------------- Iteration      1(   1)  ---------------------------------------


    POTLOK:  cpu time      0.0223: real time      0.0225
    SETDIJ:  cpu time      0.0068: real time      0.0068
     EDDAV:  cpu time      0.2846: real time      0.2870
       DOS:  cpu time      0.0012: real time      0.0012
    --------------------------------------------
      LOOP:  cpu time      0.3148: real time      0.3175

 eigenvalue-minimisations  :   960
 total energy-change (2. order) : 0.7983877E+03  (-0.3351875E+04)
 number of electron      90.0000000 magnetization      10.0000000
 augmentation part       90.0000000 magnetization      10.0000000

 Free energy of the ion-electron system (eV)
  ---------------------------------------------------
  alpha Z        PSCENC =       285.34744303
  Ewald energy   TEWEN  =     52650.10398896
  -Hartree energ DENC   =    -63700.69271573
  -exchange      EXHF   =         0.00000000
  -V(xc)+E(xc)   XCENC  =       372.86094154
  PAW double counting   =      9828.36862813   -10674.97285505
  entropy T*S    EENTRO =        -0.01621039
  eigenvalues    EBANDS =       884.77008137
  atomic energy  EATOM  =     11152.61838693
  Solvation  Ediel_sol  =         0.00000000
  ---------------------------------------------------
  free energy    TOTEN  =       798.38768879 eV

  energy without entropy =      798.40389919  energy(sigma->0) =      798.39309226


--------------------------------------------------------------------------------------------------------




--------------------------------------- Iteration      1(   2)  ---------------------------------------


     EDDAV:  cpu time      0.2734: real time      0.2761
       DOS:  cpu time      0.0008: real time      0.0008
    --------------------------------------------
      LOOP:  cpu time      0.2743: real time      0.2769

 eigenvalue-minimisations  :   960
 total energy-change (2. order) :-0.7247183E+03  (-0.6930180E+03)
 number of electron      90.0000000 magnetization      10.0000000
 augmentation part       90.0000000 magnetization      10.0000000

 Free energy of the ion-electron system (eV)
  ---------------------------------------------------
  alpha Z        PSCENC =       285.34744303
  Ewald energy   TEWEN  =     52650.10398896
  -Hartree energ DENC   =    -63700.69271573
  -exchange      EXHF   =         0.00000000
  -V(xc)+E(xc)   XCENC  =       372.86094154
  PAW double counting   =      9828.36862813   -10674.97285505
  entropy T*S    EENTRO =        -0.01777416
  eigenvalues    EBANDS =       160.05332953
  atomic energy  EATOM  =     11152.61838693
  Solvation  Ediel_sol  =         0.00000000
  ---------------------------------------------------
  free energy    TOTEN  =        73.66937319 eV

  energy without entropy =       73.68714735  energy(sigma->0) =       73.67529791


--------------------------------------------------------------------------------------------------------




--------------------------------------- Iteration      1(   3)  ---------------------------------------


     EDDAV:  cpu time      0.2787: real time      0.2812
       DOS:  cpu time      0.0009: real time      0.0009
    --------------------------------------------
      LOOP:  cpu time      0.2795: real time      0.2821

 eigenvalue-minimisations  :  1000
 total energy-change (2. order) :-0.1064167E+03  (-0.1000271E+03)
 number of electron      90.0000000 magnetization      10.0000000
 augmentation part       90.0000000 magnetization      10.0000000

 Free energy of the ion-electron system (eV)
  ---------------------------------------------------
  alpha Z        PSCENC =       285.34744303
  Ewald energy   TEWEN  =     52650.10398896
  -Hartree energ DENC   =    -63700.69271573
  -exchange      EXHF   =         0.00000000
  -V(xc)+E(xc)   XCENC  =       372.86094154
  PAW double counting   =      9828.36862813   -10674.97285505
  entropy T*S    EENTRO =        -0.00547102
  eigenvalues    EBANDS =        53.62431113
  atomic energy  EATOM  =     11152.61838693
  Solvation  Ediel_sol  =         0.00000000
  ---------------------------------------------------
  free energy    TOTEN  =       -32.74734207 eV

  energy without entropy =      -32.74187105  energy(sigma->0) =      -32.74551840


--------------------------------------------------------------------------------------------------------




--------------------------------------- Iteration      1(   4)  ---------------------------------------


     EDDAV:  cpu time      0.2956: real time      0.2983
       DOS:  cpu time      0.0009: real time      0.0009
    --------------------------------------------
      LOOP:  cpu time      0.2964: real time      0.2992

 eigenvalue-minimisations  :  1076
 total energy-change (2. order) :-0.4550875E+01  (-0.4506281E+01)
 number of electron      90.0000000 magnetization      10.0000000
 augmentation part       90.0000000 magnetization      10.0000000

 Free energy of the ion-electron system (eV)
  ---------------------------------------------------
  alpha Z        PSCENC =       285.34744303
  Ewald energy   TEWEN  =     52650.10398896
  -Hartree energ DENC   =    -63700.69271573
  -exchange      EXHF   =         0.00000000
  -V(xc)+E(xc)   XCENC  =       372.86094154
  PAW double counting   =      9828.36862813   -10674.97285505
  entropy T*S    EENTRO =         0.00667496
  eigenvalues    EBANDS =        49.06129027
  atomic energy  EATOM  =     11152.61838693
  Solvation  Ediel_sol  =         0.00000000
  ---------------------------------------------------
  free energy    TOTEN  =       -37.29821694 eV

  energy without entropy =      -37.30489191  energy(sigma->0) =      -37.30044193


--------------------------------------------------------------------------------------------------------




--------------------------------------- Iteration      1(   5)  ---------------------------------------


     EDDAV:  cpu time      0.3248: real time      0.3284
       DOS:  cpu time      0.0009: real time      0.0009
    CHARGE:  cpu time      0.0605: real time      0.0607
    MIXING:  cpu time      0.0014: real time      0.0014
    --------------------------------------------
      LOOP:  cpu time      0.3875: real time      0.3914

 eigenvalue-minimisations  :  1164
 total energy-change (2. order) :-0.1012663E+00  (-0.1011896E+00)
 number of electron      89.9999971 magnetization       9.4037235
 augmentation part       52.1623193 magnetization       9.0388023

 Broyden mixing:
  rms(total) = 0.27490E+01    rms(broyden)= 0.27489E+01
  rms(prec ) = 0.28284E+01
  weight for this iteration     100.00

 Free energy of the ion-electron system (eV)
  ---------------------------------------------------
  alpha Z        PSCENC =       285.34744303
  Ewald energy   TEWEN  =     52650.10398896
  -Hartree energ DENC   =    -63700.69271573
  -exchange      EXHF   =         0.00000000
  -V(xc)+E(xc)   XCENC  =       372.86094154
  PAW double counting   =      9828.36862813   -10674.97285505
  entropy T*S    EENTRO =         0.00746140
  eigenvalues    EBANDS =        48.95923758
  atomic energy  EATOM  =     11152.61838693
  Solvation  Ediel_sol  =         0.00000000
  ---------------------------------------------------
  free energy    TOTEN  =       -37.39948320 eV

  energy without entropy =      -37.40694460  energy(sigma->0) =      -37.40197033


--------------------------------------------------------------------------------------------------------




--------------------------------------- Iteration      1(   6)  ---------------------------------------


    POTLOK:  cpu time      0.0208: real time      0.0211
    SETDIJ:  cpu time      0.0069: real time      0.0069
     EDDAV:  cpu time      0.3478: real time      0.3505
       DOS:  cpu time      0.0013: real time      0.0013
    CHARGE:  cpu time      0.0562: real time      0.0567
    MIXING:  cpu time      0.0006: real time      0.0006
    --------------------------------------------
      LOOP:  cpu time      0.4337: real time      0.4373

 eigenvalue-minimisations  :  1328
 total energy-change (2. order) :-0.2267617E+01  (-0.1326022E+02)
 number of electron      89.9999990 magnetization       9.2908820
 augmentation part       55.3235358 magnetization       6.5049460

 Broyden mixing:
  rms(total) = 0.32421E+01    rms(broyden)= 0.32419E+01
  rms(prec ) = 0.51414E+01
  weight for this iteration     100.00

 eigenvalues of (default mixing * dielectric matrix)
  average eigenvalue GAMMA=   0.5388
  0.5388

 Free energy of the ion-electron system (eV)
  ---------------------------------------------------
  alpha Z        PSCENC =       285.34744303
  Ewald energy   TEWEN  =     52650.10398896
  -Hartree energ DENC   =    -63527.61961925
  -exchange      EXHF   =         0.00000000
  -V(xc)+E(xc)   XCENC  =       365.35628200
  PAW double counting   =     10017.61439798   -10822.31601529
  entropy T*S    EENTRO =        -0.01271379
  eigenvalues    EBANDS =      -160.75925079
  atomic energy  EATOM  =     11152.61838693
  Solvation  Ediel_sol  =         0.00000000
  ---------------------------------------------------
  free energy    TOTEN  =       -39.66710021 eV

  energy without entropy =      -39.65438643  energy(sigma->0) =      -39.66286228


--------------------------------------------------------------------------------------------------------




--------------------------------------- Iteration      1(   7)  ---------------------------------------


    POTLOK:  cpu time      0.0193: real time      0.0203
    SETDIJ:  cpu time      0.0059: real time      0.0059
     EDDAV:  cpu time      0.3867: real time      0.3896
       DOS:  cpu time      0.0009: real time      0.0009
    CHARGE:  cpu time      0.0544: real time      0.0546
    MIXING:  cpu time      0.0008: real time      0.0008
    --------------------------------------------
      LOOP:  cpu time      0.4679: real time      0.4721

 eigenvalue-minimisations  :  1496
 total energy-change (2. order) :-0.3218979E+02  (-0.4575151E+02)
 number of electron      89.9999993 magnetization       9.1214316
 augmentation part       53.2437950 magnetization       6.8277850

 Broyden mixing:
  rms(total) = 0.51960E+01    rms(broyden)= 0.51959E+01
  rms(prec ) = 0.88908E+01
  weight for this iteration     100.00

 eigenvalues of (default mixing * dielectric matrix)
  average eigenvalue GAMMA=   0.3766
  0.6645  0.0888

 Free energy of the ion-electron system (eV)
  ---------------------------------------------------
  alpha Z        PSCENC =       285.34744303
  Ewald energy   TEWEN  =     52650.10398896
  -Hartree energ DENC   =    -63566.56475279
  -exchange      EXHF   =         0.00000000
  -V(xc)+E(xc)   XCENC  =       364.86733168
  PAW double counting   =     10051.73580055   -10862.95768108
  entropy T*S    EENTRO =         0.01337187
  eigenvalues    EBANDS =      -147.02078034
  atomic energy  EATOM  =     11152.61838693
  Solvation  Ediel_sol  =         0.00000000
  ---------------------------------------------------
  free energy    TOTEN  =       -71.85689119 eV

  energy without entropy =      -71.87026306  energy(sigma->0) =      -71.86134848


--------------------------------------------------------------------------------------------------------




--------------------------------------- Iteration      1(   8)  ---------------------------------------


    POTLOK:  cpu time      0.0193: real time      0.0196
    SETDIJ:  cpu time      0.0059: real time      0.0059
     EDDAV:  cpu time      0.3957: real time      0.3990
       DOS:  cpu time      0.0009: real time      0.0009
    CHARGE:  cpu time      0.0549: real time      0.0552
    MIXING:  cpu time      0.0007: real time      0.0007
    --------------------------------------------
      LOOP:  cpu time      0.4774: real time      0.4813

 eigenvalue-minimisations  :  1552
 total energy-change (2. order) : 0.2967304E+02  (-0.3036979E+02)
 number of electron      89.9999963 magnetization       8.7899783
 augmentation part       57.6704969 magnetization       7.4385681

 Broyden mixing:
  rms(total) = 0.20483E+01    rms(broyden)= 0.20480E+01
  rms(prec ) = 0.22394E+01
  weight for this iteration     100.00

 eigenvalues of (default mixing * dielectric matrix)
  average eigenvalue GAMMA=   0.4254
  0.8895  0.2983  0.0884

 Free energy of the ion-electron system (eV)
  ---------------------------------------------------
  alpha Z        PSCENC =       285.34744303
  Ewald energy   TEWEN  =     52650.10398896
  -Hartree energ DENC   =    -63508.62534424
  -exchange      EXHF   =         0.00000000
  -V(xc)+E(xc)   XCENC  =       364.17123354
  PAW double counting   =     10081.74008016   -10900.38170912
  entropy T*S    EENTRO =         0.00273604
  eigenvalues    EBANDS =      -167.16066401
  atomic energy  EATOM  =     11152.61838693
  Solvation  Ediel_sol  =         0.00000000
  ---------------------------------------------------
  free energy    TOTEN  =       -42.18384871 eV

  energy without entropy =      -42.18658475  energy(sigma->0) =      -42.18476072


--------------------------------------------------------------------------------------------------------




--------------------------------------- Iteration      1(   9)  ---------------------------------------


    POTLOK:  cpu time      0.0190: real time      0.0193
    SETDIJ:  cpu time      0.0058: real time      0.0058
     EDDAV:  cpu time      0.3773: real time      0.3806
       DOS:  cpu time      0.0009: real time      0.0009
    CHARGE:  cpu time      0.0556: real time      0.0558
    MIXING:  cpu time      0.0007: real time      0.0007
    --------------------------------------------
      LOOP:  cpu time      0.4594: real time      0.4631

 eigenvalue-minimisations  :  1456
 total energy-change (2. order) : 0.8731109E+01  (-0.2066671E+01)
 number of electron      89.9999964 magnetization       8.5826227
 augmentation part       57.3542306 magnetization       7.2709663

 Broyden mixing:
  rms(total) = 0.13934E+01    rms(broyden)= 0.13933E+01
  rms(prec ) = 0.14862E+01
  weight for this iteration     100.00

 eigenvalues of (default mixing * dielectric matrix)
  average eigenvalue GAMMA=   0.4610
  0.8706  0.0890  0.4423  0.4423

 Free energy of the ion-electron system (eV)
  ---------------------------------------------------
  alpha Z        PSCENC =       285.34744303
  Ewald energy   TEWEN  =     52650.10398896
  -Hartree energ DENC   =    -63473.72407551
  -exchange      EXHF   =         0.00000000
  -V(xc)+E(xc)   XCENC  =       365.89828746
  PAW double counting   =     10219.01919550   -11061.04247898
  entropy T*S    EENTRO =        -0.01386854
  eigenvalues    EBANDS =      -171.65961899
  atomic energy  EATOM  =     11152.61838693
  Solvation  Ediel_sol  =         0.00000000
  ---------------------------------------------------
  free energy    TOTEN  =       -33.45274014 eV

  energy without entropy =      -33.43887161  energy(sigma->0) =      -33.44811730


--------------------------------------------------------------------------------------------------------




--------------------------------------- Iteration      1(  10)  ---------------------------------------


    POTLOK:  cpu time      0.0189: real time      0.0195
    SETDIJ:  cpu time      0.0058: real time      0.0058
     EDDAV:  cpu time      0.3770: real time      0.3800
       DOS:  cpu time      0.0009: real time      0.0009
    CHARGE:  cpu time      0.0553: real time      0.0556
    MIXING:  cpu time      0.0010: real time      0.0010
    --------------------------------------------
      LOOP:  cpu time      0.4589: real time      0.4627

 eigenvalue-minimisations  :  1412
 total energy-change (2. order) : 0.1296513E+01  (-0.7223754E+00)
 number of electron      89.9999970 magnetization       8.0879554
 augmentation part       56.8649714 magnetization       6.8071131

 Broyden mixing:
  rms(total) = 0.11880E+01    rms(broyden)= 0.11880E+01
  rms(prec ) = 0.12715E+01
  weight for this iteration     100.00

 eigenvalues of (default mixing * dielectric matrix)
  average eigenvalue GAMMA=   0.5234
  1.0352  0.6072  0.6072  0.0890  0.2782

 Free energy of the ion-electron system (eV)
  ---------------------------------------------------
  alpha Z        PSCENC =       285.34744303
  Ewald energy   TEWEN  =     52650.10398896
  -Hartree energ DENC   =    -63541.14389913
  -exchange      EXHF   =         0.00000000
  -V(xc)+E(xc)   XCENC  =       366.45145671
  PAW double counting   =     10288.89446939   -11138.12162071
  entropy T*S    EENTRO =        -0.00988827
  eigenvalues    EBANDS =       -96.29656408
  atomic energy  EATOM  =     11152.61838693
  Solvation  Ediel_sol  =         0.00000000
  ---------------------------------------------------
  free energy    TOTEN  =       -32.15622716 eV

  energy without entropy =      -32.14633889  energy(sigma->0) =      -32.15293107


--------------------------------------------------------------------------------------------------------




--------------------------------------- Iteration      1(  11)  ---------------------------------------


    POTLOK:  cpu time      0.0201: real time      0.0204
    SETDIJ:  cpu time      0.0061: real time      0.0061
     EDDAV:  cpu time      0.3638: real time      0.3676
       DOS:  cpu time      0.0009: real time      0.0009
    CHARGE:  cpu time      0.0540: real time      0.0542
    MIXING:  cpu time      0.0010: real time      0.0010
    --------------------------------------------
      LOOP:  cpu time      0.4458: real time      0.4503

 eigenvalue-minimisations  :  1392
 total energy-change (2. order) : 0.1857256E+01  (-0.2726915E+00)
 number of electron      89.9999972 magnetization       7.1442170
 augmentation part       56.4674096 magnetization       5.8095176

 Broyden mixing:
  rms(total) = 0.84224E+00    rms(broyden)= 0.84223E+00
  rms(prec ) = 0.88563E+00
  weight for this iteration     100.00

 eigenvalues of (default mixing * dielectric matrix)
  average eigenvalue GAMMA=   0.5996
  1.1912  0.8849  0.0890  0.6698  0.3815  0.3815

 Free energy of the ion-electron system (eV)
  ---------------------------------------------------
  alpha Z        PSCENC =       285.34744303
  Ewald energy   TEWEN  =     52650.10398896
  -Hartree energ DENC   =    -63572.77478220
  -exchange      EXHF   =         0.00000000
  -V(xc)+E(xc)   XCENC  =       367.18003987
  PAW double counting   =     10411.24652899   -11270.51131540
  entropy T*S    EENTRO =        -0.01109138
  eigenvalues    EBANDS =       -53.49817008
  atomic energy  EATOM  =     11152.61838693
  Solvation  Ediel_sol  =         0.00000000
  ---------------------------------------------------
  free energy    TOTEN  =       -30.29897127 eV

  energy without entropy =      -30.28787989  energy(sigma->0) =      -30.29527415


--------------------------------------------------------------------------------------------------------




--------------------------------------- Iteration      1(  12)  ---------------------------------------


    POTLOK:  cpu time      0.0191: real time      0.0206
    SETDIJ:  cpu time      0.0059: real time      0.0059
     EDDAV:  cpu time      0.4100: real time      0.4135
       DOS:  cpu time      0.0008: real time      0.0008
    CHARGE:  cpu time      0.0544: real time      0.0546
    MIXING:  cpu time      0.0009: real time      0.0009
    --------------------------------------------
      LOOP:  cpu time      0.4911: real time      0.4963

 eigenvalue-minimisations  :  1612
 total energy-change (2. order) : 0.1481017E+00  (-0.2748285E+00)
 number of electron      89.9999975 magnetization       5.4406573
 augmentation part       56.1361630 magnetization       4.0531289

 Broyden mixing:
  rms(total) = 0.60289E+00    rms(broyden)= 0.60286E+00
  rms(prec ) = 0.60474E+00
  weight for this iteration     100.00

 eigenvalues of (default mixing * dielectric matrix)
  average eigenvalue GAMMA=   0.7781
  1.8743  0.9816  0.9816  0.7611  0.0890  0.4233  0.3357

 Free energy of the ion-electron system (eV)
  ---------------------------------------------------
  alpha Z        PSCENC =       285.34744303
  Ewald energy   TEWEN  =     52650.10398896
  -Hartree energ DENC   =    -63608.85220334
  -exchange      EXHF   =         0.00000000
  -V(xc)+E(xc)   XCENC  =       367.36611264
  PAW double counting   =     10568.86189793   -11434.88368324
  entropy T*S    EENTRO =        -0.01317821
  eigenvalues    EBANDS =       -10.69963428
  atomic energy  EATOM  =     11152.61838693
  Solvation  Ediel_sol  =         0.00000000
  ---------------------------------------------------
  free energy    TOTEN  =       -30.15086958 eV

  energy without entropy =      -30.13769137  energy(sigma->0) =      -30.14647684


--------------------------------------------------------------------------------------------------------




--------------------------------------- Iteration      1(  13)  ---------------------------------------


    POTLOK:  cpu time      0.0190: real time      0.0193
    SETDIJ:  cpu time      0.0059: real time      0.0059
     EDDAV:  cpu time      0.4096: real time      0.4131
       DOS:  cpu time      0.0009: real time      0.0009
    CHARGE:  cpu time      0.0546: real time      0.0549
    MIXING:  cpu time      0.0010: real time      0.0010
    --------------------------------------------
      LOOP:  cpu time      0.4910: real time      0.4950

 eigenvalue-minimisations  :  1608
 total energy-change (2. order) :-0.1312553E+01  (-0.3257533E+00)
 number of electron      89.9999975 magnetization       4.1550715
 augmentation part       55.9593446 magnetization       2.7703147

 Broyden mixing:
  rms(total) = 0.52330E+00    rms(broyden)= 0.52327E+00
  rms(prec ) = 0.55082E+00
  weight for this iteration     100.00

 eigenvalues of (default mixing * dielectric matrix)
  average eigenvalue GAMMA=   0.9512
  3.4075  1.1932  0.0890  0.8524  0.6756  0.6386  0.4197  0.3336

 Free energy of the ion-electron system (eV)
  ---------------------------------------------------
  alpha Z        PSCENC =       285.34744303
  Ewald energy   TEWEN  =     52650.10398896
  -Hartree energ DENC   =    -63639.58919439
  -exchange      EXHF   =         0.00000000
  -V(xc)+E(xc)   XCENC  =       367.01481534
  PAW double counting   =     10725.12145433   -11593.36065248
  entropy T*S    EENTRO =         0.00579888
  eigenvalues    EBANDS =        21.27453710
  atomic energy  EATOM  =     11152.61838693
  Solvation  Ediel_sol  =         0.00000000
  ---------------------------------------------------
  free energy    TOTEN  =       -31.46342229 eV

  energy without entropy =      -31.46922117  energy(sigma->0) =      -31.46535525


--------------------------------------------------------------------------------------------------------




--------------------------------------- Iteration      1(  14)  ---------------------------------------


    POTLOK:  cpu time      0.0190: real time      0.0193
    SETDIJ:  cpu time      0.0059: real time      0.0060
     EDDAV:  cpu time      0.3472: real time      0.3504
       DOS:  cpu time      0.0008: real time      0.0008
    CHARGE:  cpu time      0.0541: real time      0.0544
    MIXING:  cpu time      0.0011: real time      0.0011
    --------------------------------------------
      LOOP:  cpu time      0.4282: real time      0.4319

 eigenvalue-minimisations  :  1336
 total energy-change (2. order) :-0.7868076E+00  (-0.1337649E+00)
 number of electron      89.9999974 magnetization       3.4572403
 augmentation part       56.1078085 magnetization       2.2236845

 Broyden mixing:
  rms(total) = 0.38428E+00    rms(broyden)= 0.38426E+00
  rms(prec ) = 0.40975E+00
  weight for this iteration     100.00

 eigenvalues of (default mixing * dielectric matrix)
  average eigenvalue GAMMA=   0.9768
  3.7080  1.4291  0.0890  0.8293  0.8293  0.3378  0.4062  0.5811  0.5811

 Free energy of the ion-electron system (eV)
  ---------------------------------------------------
  alpha Z        PSCENC =       285.34744303
  Ewald energy   TEWEN  =     52650.10398896
  -Hartree energ DENC   =    -63646.84417874
  -exchange      EXHF   =         0.00000000
  -V(xc)+E(xc)   XCENC  =       366.40634543
  PAW double counting   =     10759.34792281   -11625.59067450
  entropy T*S    EENTRO =        -0.00226266
  eigenvalues    EBANDS =        26.36279881
  atomic energy  EATOM  =     11152.61838693
  Solvation  Ediel_sol  =         0.00000000
  ---------------------------------------------------
  free energy    TOTEN  =       -32.25022993 eV

  energy without entropy =      -32.24796727  energy(sigma->0) =      -32.24947571


--------------------------------------------------------------------------------------------------------




--------------------------------------- Iteration      1(  15)  ---------------------------------------


    POTLOK:  cpu time      0.0190: real time      0.0192
    SETDIJ:  cpu time      0.0058: real time      0.0058
     EDDAV:  cpu time      0.3348: real time      0.3377
       DOS:  cpu time      0.0009: real time      0.0009
    CHARGE:  cpu time      0.0547: real time      0.0549
    MIXING:  cpu time      0.0012: real time      0.0012
    --------------------------------------------
      LOOP:  cpu time      0.4163: real time      0.4197

 eigenvalue-minimisations  :  1284
 total energy-change (2. order) :-0.1196267E+01  (-0.9237054E-01)
 number of electron      89.9999975 magnetization       2.2888775
 augmentation part       56.2133701 magnetization       1.4399308

 Broyden mixing:
  rms(total) = 0.28971E+00    rms(broyden)= 0.28969E+00
  rms(prec ) = 0.30004E+00
  weight for this iteration     100.00

 eigenvalues of (default mixing * dielectric matrix)
  average eigenvalue GAMMA=   1.3035
  6.6709  1.6682  0.9983  0.9983  0.0890  0.6637  0.6637  0.3358  0.4193  0.5279

 Free energy of the ion-electron system (eV)
  ---------------------------------------------------
  alpha Z        PSCENC =       285.34744303
  Ewald energy   TEWEN  =     52650.10398896
  -Hartree energ DENC   =    -63642.01663335
  -exchange      EXHF   =         0.00000000
  -V(xc)+E(xc)   XCENC  =       365.44062680
  PAW double counting   =     10702.01028239   -11565.26098985
  entropy T*S    EENTRO =        -0.01425052
  eigenvalues    EBANDS =        18.32464908
  atomic energy  EATOM  =     11152.61838693
  Solvation  Ediel_sol  =         0.00000000
  ---------------------------------------------------
  free energy    TOTEN  =       -33.44649652 eV

  energy without entropy =      -33.43224601  energy(sigma->0) =      -33.44174635


--------------------------------------------------------------------------------------------------------




--------------------------------------- Iteration      1(  16)  ---------------------------------------


    POTLOK:  cpu time      0.0188: real time      0.0191
    SETDIJ:  cpu time      0.0058: real time      0.0058
     EDDAV:  cpu time      0.3805: real time      0.3836
       DOS:  cpu time      0.0009: real time      0.0009
    CHARGE:  cpu time      0.0565: real time      0.0571
    MIXING:  cpu time      0.0033: real time      0.0033
    --------------------------------------------
      LOOP:  cpu time      0.4658: real time      0.4697

 eigenvalue-minimisations  :  1480
 total energy-change (2. order) :-0.1071668E+01  (-0.1053758E+00)
 number of electron      89.9999975 magnetization       1.6798307
 augmentation part       56.1443349 magnetization       0.9505750

 Broyden mixing:
  rms(total) = 0.17984E+00    rms(broyden)= 0.17979E+00
  rms(prec ) = 0.23027E+00
  weight for this iteration     100.00

 eigenvalues of (default mixing * dielectric matrix)
  average eigenvalue GAMMA=   1.4614
  8.7172  1.8217  0.9782  0.9782  0.9274  0.0890  0.7062  0.6132  0.3359  0.4158
  0.4922

 Free energy of the ion-electron system (eV)
  ---------------------------------------------------
  alpha Z        PSCENC =       285.34744303
  Ewald energy   TEWEN  =     52650.10398896
  -Hartree energ DENC   =    -63657.01878956
  -exchange      EXHF   =         0.00000000
  -V(xc)+E(xc)   XCENC  =       364.80956150
  PAW double counting   =     10661.25838749   -11522.79506844
  entropy T*S    EENTRO =        -0.01297893
  eigenvalues    EBANDS =        31.17090445
  atomic energy  EATOM  =     11152.61838693
  Solvation  Ediel_sol  =         0.00000000
  ---------------------------------------------------
  free energy    TOTEN  =       -34.51816458 eV

  energy without entropy =      -34.50518565  energy(sigma->0) =      -34.51383827


--------------------------------------------------------------------------------------------------------




--------------------------------------- Iteration      1(  17)  ---------------------------------------


    POTLOK:  cpu time      0.0205: real time      0.0207
    SETDIJ:  cpu time      0.0064: real time      0.0065
     EDDAV:  cpu time      0.3809: real time      0.3842
       DOS:  cpu time      0.0009: real time      0.0009
    CHARGE:  cpu time      0.0543: real time      0.0545
    MIXING:  cpu time      0.0015: real time      0.0015
    --------------------------------------------
      LOOP:  cpu time      0.4644: real time      0.4683

 eigenvalue-minimisations  :  1468
 total energy-change (2. order) :-0.4796525E+00  (-0.7751805E-01)
 number of electron      89.9999975 magnetization       1.2933164
 augmentation part       56.1923414 magnetization       0.7440067

 Broyden mixing:
  rms(total) = 0.14573E+00    rms(broyden)= 0.14570E+00
  rms(prec ) = 0.14870E+00
  weight for this iteration     100.00

 eigenvalues of (default mixing * dielectric matrix)
  average eigenvalue GAMMA=   1.6283
 10.7335  2.2844  1.2772  1.0297  1.0297  0.0890  0.7608  0.5926  0.5926  0.3356
  0.4187  0.3956

 Free energy of the ion-electron system (eV)
  ---------------------------------------------------
  alpha Z        PSCENC =       285.34744303
  Ewald energy   TEWEN  =     52650.10398896
  -Hartree energ DENC   =    -63641.39404981
  -exchange      EXHF   =         0.00000000
  -V(xc)+E(xc)   XCENC  =       364.47614494
  PAW double counting   =     10617.34019144   -11478.54246249
  entropy T*S    EENTRO =        -0.00718151
  eigenvalues    EBANDS =        15.05972140
  atomic energy  EATOM  =     11152.61838693
  Solvation  Ediel_sol  =         0.00000000
  ---------------------------------------------------
  free energy    TOTEN  =       -34.99781711 eV

  energy without entropy =      -34.99063560  energy(sigma->0) =      -34.99542327


--------------------------------------------------------------------------------------------------------




--------------------------------------- Iteration      1(  18)  ---------------------------------------


    POTLOK:  cpu time      0.0199: real time      0.0202
    SETDIJ:  cpu time      0.0059: real time      0.0059
     EDDAV:  cpu time      0.3179: real time      0.3203
       DOS:  cpu time      0.0009: real time      0.0009
    CHARGE:  cpu time      0.0542: real time      0.0545
    MIXING:  cpu time      0.0013: real time      0.0013
    --------------------------------------------
      LOOP:  cpu time      0.4001: real time      0.4031

 eigenvalue-minimisations  :  1196
 total energy-change (2. order) :-0.5077030E+00  (-0.4938019E-01)
 number of electron      89.9999975 magnetization       1.0671073
 augmentation part       56.1771810 magnetization       0.6282251

 Broyden mixing:
  rms(total) = 0.92675E-01    rms(broyden)= 0.92656E-01
  rms(prec ) = 0.95931E-01
  weight for this iteration     100.00

 eigenvalues of (default mixing * dielectric matrix)
  average eigenvalue GAMMA=   1.6838
 11.7349  2.6445  1.4973  0.9823  0.9823  0.0890  0.8211  0.7124  0.7124  0.5441
  0.3358  0.4266  0.4071

 Free energy of the ion-electron system (eV)
  ---------------------------------------------------
  alpha Z        PSCENC =       285.34744303
  Ewald energy   TEWEN  =     52650.10398896
  -Hartree energ DENC   =    -63628.68519550
  -exchange      EXHF   =         0.00000000
  -V(xc)+E(xc)   XCENC  =       364.10557618
  PAW double counting   =     10572.00064281   -11433.29077009
  entropy T*S    EENTRO =        -0.01081254
  eigenvalues    EBANDS =         2.30522010
  atomic energy  EATOM  =     11152.61838693
  Solvation  Ediel_sol  =         0.00000000
  ---------------------------------------------------
  free energy    TOTEN  =       -35.50552012 eV

  energy without entropy =      -35.49470758  energy(sigma->0) =      -35.50191594


--------------------------------------------------------------------------------------------------------




--------------------------------------- Iteration      1(  19)  ---------------------------------------


    POTLOK:  cpu time      0.0190: real time      0.0194
    SETDIJ:  cpu time      0.0058: real time      0.0058
     EDDAV:  cpu time      0.3148: real time      0.3174
       DOS:  cpu time      0.0009: real time      0.0009
    CHARGE:  cpu time      0.0542: real time      0.0544
    MIXING:  cpu time      0.0015: real time      0.0015
    --------------------------------------------
      LOOP:  cpu time      0.3960: real time      0.3994

 eigenvalue-minimisations  :  1184
 total energy-change (2. order) :-0.1668915E+00  (-0.1100929E-01)
 number of electron      89.9999974 magnetization       0.8256382
 augmentation part       56.1534923 magnetization       0.4510997

 Broyden mixing:
  rms(total) = 0.76706E-01    rms(broyden)= 0.76694E-01
  rms(prec ) = 0.77404E-01
  weight for this iteration     100.00

 eigenvalues of (default mixing * dielectric matrix)
  average eigenvalue GAMMA=   1.7137
 12.4035  3.0183  1.6598  1.0365  1.0365  0.9124  0.9124  0.0890  0.6178  0.6178
  0.3358  0.5201  0.4245  0.4077

 Free energy of the ion-electron system (eV)
  ---------------------------------------------------
  alpha Z        PSCENC =       285.34744303
  Ewald energy   TEWEN  =     52650.10398896
  -Hartree energ DENC   =    -63630.50770656
  -exchange      EXHF   =         0.00000000
  -V(xc)+E(xc)   XCENC  =       363.97817118
  PAW double counting   =     10572.73341178   -11434.62278309
  entropy T*S    EENTRO =        -0.01514742
  eigenvalues    EBANDS =         4.69182354
  atomic energy  EATOM  =     11152.61838693
  Solvation  Ediel_sol  =         0.00000000
  ---------------------------------------------------
  free energy    TOTEN  =       -35.67241164 eV

  energy without entropy =      -35.65726421  energy(sigma->0) =      -35.66736250


--------------------------------------------------------------------------------------------------------




--------------------------------------- Iteration      1(  20)  ---------------------------------------


    POTLOK:  cpu time      0.0188: real time      0.0191
    SETDIJ:  cpu time      0.0058: real time      0.0058
     EDDAV:  cpu time      0.3173: real time      0.3201
       DOS:  cpu time      0.0009: real time      0.0009
    CHARGE:  cpu time      0.0547: real time      0.0550
    MIXING:  cpu time      0.0017: real time      0.0017
    --------------------------------------------
      LOOP:  cpu time      0.3992: real time      0.4025

 eigenvalue-minimisations  :  1192
 total energy-change (2. order) :-0.1511797E+00  (-0.7769405E-02)
 number of electron      89.9999974 magnetization       0.6172407
 augmentation part       56.1766322 magnetization       0.3329237

 Broyden mixing:
  rms(total) = 0.65188E-01    rms(broyden)= 0.65169E-01
  rms(prec ) = 0.66260E-01
  weight for this iteration     100.00

 eigenvalues of (default mixing * dielectric matrix)
  average eigenvalue GAMMA=   1.7764
 13.0799  3.3747  2.3274  1.1263  1.1263  0.9549  0.9549  0.0890  0.6742  0.6742
  0.3358  0.5479  0.5479  0.4235  0.4091

 Free energy of the ion-electron system (eV)
  ---------------------------------------------------
  alpha Z        PSCENC =       285.34744303
  Ewald energy   TEWEN  =     52650.10398896
  -Hartree energ DENC   =    -63627.44762291
  -exchange      EXHF   =         0.00000000
  -V(xc)+E(xc)   XCENC  =       363.79362975
  PAW double counting   =     10567.96758125   -11429.99300868
  entropy T*S    EENTRO =        -0.02036176
  eigenvalues    EBANDS =         1.80637206
  atomic energy  EATOM  =     11152.61838693
  Solvation  Ediel_sol  =         0.00000000
  ---------------------------------------------------
  free energy    TOTEN  =       -35.82359137 eV

  energy without entropy =      -35.80322960  energy(sigma->0) =      -35.81680411


--------------------------------------------------------------------------------------------------------




--------------------------------------- Iteration      1(  21)  ---------------------------------------


    POTLOK:  cpu time      0.0194: real time      0.0197
    SETDIJ:  cpu time      0.0060: real time      0.0060
     EDDAV:  cpu time      0.3138: real time      0.3165
       DOS:  cpu time      0.0009: real time      0.0009
    CHARGE:  cpu time      0.0542: real time      0.0545
    MIXING:  cpu time      0.0016: real time      0.0016
    --------------------------------------------
      LOOP:  cpu time      0.3959: real time      0.3991

 eigenvalue-minimisations  :  1176
 total energy-change (2. order) :-0.5723672E-01  (-0.4795908E-02)
 number of electron      89.9999974 magnetization       0.4957897
 augmentation part       56.1710862 magnetization       0.2572231

 Broyden mixing:
  rms(total) = 0.50278E-01    rms(broyden)= 0.50263E-01
  rms(prec ) = 0.52036E-01
  weight for this iteration     100.00

 eigenvalues of (default mixing * dielectric matrix)
  average eigenvalue GAMMA=   1.8015
 13.4478  4.0863  2.4512  1.2971  0.0890  1.0396  1.0396  0.8989  0.8989  0.6955
  0.5987  0.5987  0.3358  0.5143  0.4247  0.4078

 Free energy of the ion-electron system (eV)
  ---------------------------------------------------
  alpha Z        PSCENC =       285.34744303
  Ewald energy   TEWEN  =     52650.10398896
  -Hartree energ DENC   =    -63625.46643054
  -exchange      EXHF   =         0.00000000
  -V(xc)+E(xc)   XCENC  =       363.76030359
  PAW double counting   =     10575.68233019   -11438.23702134
  entropy T*S    EENTRO =        -0.02290872
  eigenvalues    EBANDS =         0.33307980
  atomic energy  EATOM  =     11152.61838693
  Solvation  Ediel_sol  =         0.00000000
  ---------------------------------------------------
  free energy    TOTEN  =       -35.88082809 eV

  energy without entropy =      -35.85791937  energy(sigma->0) =      -35.87319185


--------------------------------------------------------------------------------------------------------




--------------------------------------- Iteration      1(  22)  ---------------------------------------


    POTLOK:  cpu time      0.0189: real time      0.0192
    SETDIJ:  cpu time      0.0058: real time      0.0059
     EDDAV:  cpu time      0.3067: real time      0.3094
       DOS:  cpu time      0.0009: real time      0.0009
    CHARGE:  cpu time      0.0542: real time      0.0545
    MIXING:  cpu time      0.0018: real time      0.0018
    --------------------------------------------
      LOOP:  cpu time      0.3884: real time      0.3916

 eigenvalue-minimisations  :  1144
 total energy-change (2. order) :-0.3319063E-01  (-0.2355246E-02)
 number of electron      89.9999974 magnetization       0.3935622
 augmentation part       56.1745223 magnetization       0.1883009

 Broyden mixing:
  rms(total) = 0.43617E-01    rms(broyden)= 0.43609E-01
  rms(prec ) = 0.45046E-01
  weight for this iteration     100.00

 eigenvalues of (default mixing * dielectric matrix)
  average eigenvalue GAMMA=   1.8523
 13.8428  5.0209  2.5033  1.8573  0.0890  1.0712  1.0712  0.9224  0.9224  0.6836
  0.6836  0.3358  0.6124  0.5581  0.4073  0.4238  0.4841

 Free energy of the ion-electron system (eV)
  ---------------------------------------------------
  alpha Z        PSCENC =       285.34744303
  Ewald energy   TEWEN  =     52650.10398896
  -Hartree energ DENC   =    -63623.18453781
  -exchange      EXHF   =         0.00000000
  -V(xc)+E(xc)   XCENC  =       363.74511384
  PAW double counting   =     10578.50209904   -11441.10761994
  entropy T*S    EENTRO =        -0.02399069
  eigenvalues    EBANDS =        -1.91490209
  atomic energy  EATOM  =     11152.61838693
  Solvation  Ediel_sol  =         0.00000000
  ---------------------------------------------------
  free energy    TOTEN  =       -35.91401871 eV

  energy without entropy =      -35.89002803  energy(sigma->0) =      -35.90602182


--------------------------------------------------------------------------------------------------------




--------------------------------------- Iteration      1(  23)  ---------------------------------------


    POTLOK:  cpu time      0.0194: real time      0.0196
    SETDIJ:  cpu time      0.0056: real time      0.0140
     EDDAV:  cpu time      0.3193: real time      0.3219
       DOS:  cpu time      0.0009: real time      0.0009
    CHARGE:  cpu time      0.0540: real time      0.0543
    MIXING:  cpu time      0.0019: real time      0.0019
    --------------------------------------------
      LOOP:  cpu time      0.4010: real time      0.4126

 eigenvalue-minimisations  :  1196
 total energy-change (2. order) :-0.2326051E+00  (-0.1717068E-02)
 number of electron      89.9999974 magnetization       0.2709780
 augmentation part       56.1813664 magnetization       0.0923660

 Broyden mixing:
  rms(total) = 0.34844E-01    rms(broyden)= 0.34838E-01
  rms(prec ) = 0.36634E-01
  weight for this iteration     100.00

 eigenvalues of (default mixing * dielectric matrix)
  average eigenvalue GAMMA=   1.9197
 14.3481  6.1163  2.8041  2.0494  1.1152  1.1152  0.0890  0.9198  0.9198  0.8129
  0.8129  0.6352  0.6352  0.3358  0.4073  0.4236  0.5288  0.4868

 Free energy of the ion-electron system (eV)
  ---------------------------------------------------
  alpha Z        PSCENC =       285.34744303
  Ewald energy   TEWEN  =     52650.10398896
  -Hartree energ DENC   =    -63621.78161076
  -exchange      EXHF   =         0.00000000
  -V(xc)+E(xc)   XCENC  =       363.53487574
  PAW double counting   =     10580.52991000   -11442.84389348
  entropy T*S    EENTRO =        -0.02441501
  eigenvalues    EBANDS =        -3.63130919
  atomic energy  EATOM  =     11152.61838693
  Solvation  Ediel_sol  =         0.00000000
  ---------------------------------------------------
  free energy    TOTEN  =       -36.14662377 eV

  energy without entropy =      -36.12220876  energy(sigma->0) =      -36.13848543


--------------------------------------------------------------------------------------------------------




--------------------------------------- Iteration      1(  24)  ---------------------------------------


    POTLOK:  cpu time      0.0188: real time      0.0190
    SETDIJ:  cpu time      0.0058: real time      0.0058
     EDDAV:  cpu time      0.3306: real time      0.3335
       DOS:  cpu time      0.0009: real time      0.0009
    CHARGE:  cpu time      0.0562: real time      0.0564
    MIXING:  cpu time      0.0019: real time      0.0019
    --------------------------------------------
      LOOP:  cpu time      0.4141: real time      0.4175

 eigenvalue-minimisations  :  1260
 total energy-change (2. order) :-0.2568118E+00  (-0.1725982E-02)
 number of electron      89.9999974 magnetization       0.1819772
 augmentation part       56.1630730 magnetization       0.0429736

 Broyden mixing:
  rms(total) = 0.20959E-01    rms(broyden)= 0.20949E-01
  rms(prec ) = 0.21184E-01
  weight for this iteration     100.00

 eigenvalues of (default mixing * dielectric matrix)
  average eigenvalue GAMMA=   2.0254
 15.2963  7.5732  3.2969  2.0671  1.4380  1.0578  1.0578  0.0890  0.8946  0.8946
  0.6866  0.6866  0.6329  0.6329  0.3358  0.5376  0.4074  0.4241  0.4741

 Free energy of the ion-electron system (eV)
  ---------------------------------------------------
  alpha Z        PSCENC =       285.34744303
  Ewald energy   TEWEN  =     52650.10398896
  -Hartree energ DENC   =    -63623.94894363
  -exchange      EXHF   =         0.00000000
  -V(xc)+E(xc)   XCENC  =       363.33943301
  PAW double counting   =     10585.95282439   -11448.28809978
  entropy T*S    EENTRO =        -0.02410178
  eigenvalues    EBANDS =        -1.50436675
  atomic energy  EATOM  =     11152.61838693
  Solvation  Ediel_sol  =         0.00000000
  ---------------------------------------------------
  free energy    TOTEN  =       -36.40343562 eV

  energy without entropy =      -36.37933384  energy(sigma->0) =      -36.39540169


--------------------------------------------------------------------------------------------------------




--------------------------------------- Iteration      1(  25)  ---------------------------------------


    POTLOK:  cpu time      0.0188: real time      0.0191
    SETDIJ:  cpu time      0.0058: real time      0.0058
     EDDAV:  cpu time      0.3636: real time      0.3667
       DOS:  cpu time      0.0009: real time      0.0009
    CHARGE:  cpu time      0.0547: real time      0.0549
    MIXING:  cpu time      0.0021: real time      0.0021
    --------------------------------------------
      LOOP:  cpu time      0.4457: real time      0.4494

 eigenvalue-minimisations  :  1408
 total energy-change (2. order) :-0.6243512E-01  (-0.8820884E-03)
 number of electron      89.9999974 magnetization       0.1027660
 augmentation part       56.1507324 magnetization      -0.0063005

 Broyden mixing:
  rms(total) = 0.20666E-01    rms(broyden)= 0.20659E-01
  rms(prec ) = 0.22262E-01
  weight for this iteration     100.00

 eigenvalues of (default mixing * dielectric matrix)
  average eigenvalue GAMMA=   2.1664
 16.7419  8.7482  3.9111  2.0022  2.0022  1.1696  1.1696  0.0890  0.9320  0.9320
  0.7993  0.7993  0.6440  0.6440  0.3358  0.5641  0.5374  0.4073  0.4237  0.4755

 Free energy of the ion-electron system (eV)
  ---------------------------------------------------
  alpha Z        PSCENC =       285.34744303
  Ewald energy   TEWEN  =     52650.10398896
  -Hartree energ DENC   =    -63624.49733885
  -exchange      EXHF   =         0.00000000
  -V(xc)+E(xc)   XCENC  =       363.30984452
  PAW double counting   =     10587.30815369   -11449.73496161
  entropy T*S    EENTRO =        -0.02299871
  eigenvalues    EBANDS =        -0.89838871
  atomic energy  EATOM  =     11152.61838693
  Solvation  Ediel_sol  =         0.00000000
  ---------------------------------------------------
  free energy    TOTEN  =       -36.46587074 eV

  energy without entropy =      -36.44287203  energy(sigma->0) =      -36.45820450


--------------------------------------------------------------------------------------------------------




--------------------------------------- Iteration      1(  26)  ---------------------------------------


[...]
      2      -3.6605      1.00000
      3      -3.3817      1.00000
      4      -2.9815      1.00000
      5      -2.5485      1.00000
      6      -2.1645      1.00000
      7      -1.8347      1.00000
      8      -1.6478      1.00000
      9      -1.5804      1.00000
     10      -1.4838      1.00000
     11      -1.4172      1.00000
     12      -1.1978      1.00000
     13      -1.0034      1.00000
     14      -0.8537      1.00000
     15      -0.6838      1.00000
     16      -0.6766      1.00000
     17      -0.5308      1.00000
     18      -0.4539      1.00000
     19      -0.4326      1.00000
     20      -0.3441      1.00000
     21      -0.3082      1.00000
     22      -0.2418      1.00000
     23      -0.1235      1.00000
     24      -0.0787      1.00000
     25       0.0546      1.00000
     26       0.1714      1.00000
     27       0.2798      1.00000
     28       0.3712      1.00000
     29       0.4358      1.00000
     30       0.5180      1.00000
     31       0.5286      1.00000
     32       0.6100      1.00000
     33       0.6291      1.00000
     34       0.6777      1.00000
     35       0.6949      1.00000
     36       0.7547      1.00000
     37       0.7911      1.00000
     38       0.7980      1.00000
     39       0.8801      1.00000
     40       0.9139      1.00000
     41       1.0759      1.00000
     42       1.1449      1.00000
     43       1.1478      1.00000
     44       1.2328      1.00000
     45       1.3190      1.00000
     46       1.9469      0.78642
     47       3.0537     -0.00000
     48       4.4014     -0.00000
     49       5.8988     -0.00000
     50       7.1141     -0.00000
     51       8.2997      0.00000
     52       9.0041      0.00000
     53       9.4223      0.00000
     54       9.8558      0.00000
     55      10.0204      0.00000
     56      10.3768      0.00000
     57      10.9268      0.00000
     58      11.4397      0.00000
     59      11.6450      0.00000
     60      12.0833      0.00000

 k-point     4 :      -0.3333    0.3333    0.0000
  band No.  band energies     occupation 
      1      -2.3883      1.00000
      2      -1.5597      1.00000
      3      -1.5499      1.00000
      4      -1.5461      1.00000
      5      -1.4872      1.00000
      6      -1.4368      1.00000
      7      -1.4327      1.00000
      8      -1.3929      1.00000
      9      -1.3928      1.00000
     10      -1.3889      1.00000
     11      -1.3629      1.00000
     12      -1.3566      1.00000
     13      -1.2133      1.00000
     14      -1.1761      1.00000
     15      -1.0843      1.00000
     16      -1.0566      1.00000
     17      -0.7365      1.00000
     18      -0.6917      1.00000
     19      -0.6908      1.00000
     20      -0.6269      1.00000
     21      -0.4362      1.00000
     22      -0.3909      1.00000
     23       0.0810      1.00000
     24       0.1119      1.00000
     25       0.1827      1.00000
     26       0.1976      1.00000
     27       0.2858      1.00000
     28       0.2891      1.00000
     29       0.3206      1.00000
     30       0.3263      1.00000
     31       0.3288      1.00000
     32       0.6253      1.00000
     33       0.6826      1.00000
     34       0.8148      1.00000
     35       0.8181      1.00000
     36       0.8473      1.00000
     37       0.9085      1.00000
     38       0.9831      1.00000
     39       1.0035      1.00000
     40       1.0227      1.00000
     41       1.0902      1.00000
     42       5.7538     -0.00000
     43       5.7575     -0.00000
     44       5.7808     -0.00000
     45       5.9298     -0.00000
     46       5.9395     -0.00000
     47       6.2025     -0.00000
     48       6.3213     -0.00000
     49       6.9465     -0.00000
     50       7.0556     -0.00000
     51       7.6415      0.00000
     52       7.6610      0.00000
     53       7.7683      0.00000
     54       8.1848      0.00000
     55       8.2111      0.00000
     56       8.5929      0.00000
     57       9.1388      0.00000
     58       9.5657      0.00000
     59       9.9919      0.00000
     60      10.4349      0.00000


--------------------------------------------------------------------------------------------------------


 soft charge-density along one line, spin component           1
         0         1         2         3         4         5         6         7         8         9
 total charge-density along one line
 
 soft charge-density along one line, spin component           2
         0         1         2         3         4         5         6         7         8         9
 total charge-density along one line
 
 pseudopotential strength for first ion, spin component:           1
 -6.050  -0.000   0.000  -0.004   0.000  -2.342   0.000  -0.000
 -0.000  -6.103   0.000   0.000  -0.004   0.000  -2.307  -0.000
  0.000   0.000  -6.128   0.000   0.000  -0.000  -0.000  -2.289
 -0.004   0.000   0.000  -6.103  -0.000   0.003  -0.000  -0.000
  0.000  -0.004   0.000  -0.000  -6.050  -0.000   0.003  -0.000
 -2.342   0.000  -0.000   0.003  -0.000   8.629  -0.000   0.000
  0.000  -2.307  -0.000  -0.000   0.003  -0.000   8.606   0.000
 -0.000  -0.000  -2.289  -0.000  -0.000   0.000   0.000   8.594
  0.003  -0.000  -0.000  -2.307   0.000  -0.002  -0.000  -0.000
 -0.000   0.003  -0.000   0.000  -2.342   0.000  -0.002   0.000
  0.000  -0.000   0.003   0.000   0.000   0.000  -0.000   0.001
  0.000  -0.000   0.005   0.000   0.000   0.000  -0.000   0.003
  0.000  -0.013   0.000  -0.000   0.000   0.000   0.012  -0.000
 -0.000  -0.000  -0.012   0.000  -0.000  -0.000   0.000   0.010
  0.000  -0.000  -0.000  -0.013   0.000   0.000  -0.000  -0.000
  0.000  -0.015   0.000   0.000   0.000   0.000   0.014  -0.000
  0.000  -0.000  -0.013   0.000  -0.000  -0.000   0.000   0.011
  0.000   0.000  -0.000  -0.015   0.000   0.000  -0.000  -0.000
 pseudopotential strength for first ion, spin component:           2
 -6.050  -0.000   0.000  -0.004   0.000  -2.342   0.000  -0.000
 -0.000  -6.103   0.000   0.000  -0.004   0.000  -2.307  -0.000
  0.000   0.000  -6.128   0.000   0.000  -0.000  -0.000  -2.289
 -0.004   0.000   0.000  -6.103  -0.000   0.003  -0.000  -0.000
  0.000  -0.004   0.000  -0.000  -6.050  -0.000   0.003  -0.000
 -2.342   0.000  -0.000   0.003  -0.000   8.629  -0.000   0.000
  0.000  -2.307  -0.000  -0.000   0.003  -0.000   8.606   0.000
 -0.000  -0.000  -2.289  -0.000  -0.000   0.000   0.000   8.594
  0.003  -0.000  -0.000  -2.307   0.000  -0.002  -0.000  -0.000
 -0.000   0.003  -0.000   0.000  -2.342   0.000  -0.002   0.000
  0.000  -0.000   0.003   0.000   0.000   0.000  -0.000   0.001
  0.000  -0.000   0.005   0.000   0.000   0.000  -0.000   0.003
  0.000  -0.013   0.000  -0.000   0.000   0.000   0.012  -0.000
 -0.000  -0.000  -0.012   0.000  -0.000  -0.000   0.000   0.010
  0.000  -0.000  -0.000  -0.013   0.000   0.000  -0.000  -0.000
  0.000  -0.015   0.000   0.000   0.000   0.000   0.014  -0.000
  0.000  -0.000  -0.013   0.000  -0.000  -0.000   0.000   0.011
  0.000   0.000  -0.000  -0.015   0.000   0.000  -0.000  -0.000
 total augmentation occupancy for first ion, spin component:           1
  1.932   0.000  -0.000  -0.004  -0.000  -0.016  -0.000   0.000   0.005   0.000   0.000  -0.000  -0.000  -0.000   0.006   0.000
  0.000   1.928   0.000   0.000  -0.004  -0.000  -0.024  -0.000  -0.000   0.005  -0.000  -0.000   0.007  -0.000   0.000  -0.013
 -0.000   0.000   1.914   0.000   0.000   0.000  -0.000  -0.018  -0.000  -0.000  -0.067   0.028  -0.000   0.077  -0.000   0.000
 -0.004   0.000   0.000   1.928  -0.000   0.005  -0.000  -0.000  -0.024   0.000  -0.000  -0.000   0.000  -0.000   0.007  -0.000
 -0.000  -0.004   0.000  -0.000   1.932   0.000   0.005  -0.000   0.000  -0.016  -0.000   0.000   0.006  -0.000   0.000  -0.001
 -0.016  -0.000   0.000   0.005   0.000   0.013  -0.000  -0.000   0.000  -0.000   0.000  -0.000  -0.000  -0.000   0.004   0.000
 -0.000  -0.024  -0.000  -0.000   0.005  -0.000   0.010  -0.000   0.000   0.000  -0.000   0.000   0.019  -0.000   0.000  -0.001
  0.000  -0.000  -0.018  -0.000  -0.000  -0.000  -0.000   0.012  -0.000   0.000  -0.022   0.001  -0.000   0.021  -0.000  -0.000
  0.005  -0.000  -0.000  -0.024   0.000   0.000   0.000  -0.000   0.010   0.000  -0.000   0.000   0.000  -0.000   0.018  -0.000
  0.000   0.005  -0.000   0.000  -0.016  -0.000   0.000   0.000   0.000   0.013  -0.000   0.000   0.004  -0.000   0.000  -0.000
  0.000  -0.000  -0.067  -0.000  -0.000   0.000  -0.000  -0.022  -0.000  -0.000   1.752  -0.149  -0.000   0.175  -0.000  -0.000
 -0.000  -0.000   0.028  -0.000   0.000  -0.000   0.000   0.001   0.000   0.000  -0.149   0.018  -0.000  -0.025  -0.000   0.000
 -0.000   0.007  -0.000   0.000   0.006  -0.000   0.019  -0.000   0.000   0.004  -0.000  -0.000   0.234  -0.000   0.000  -0.015
 -0.000  -0.000   0.077  -0.000  -0.000  -0.000  -0.000   0.021  -0.000  -0.000   0.175  -0.025  -0.000   0.113  -0.000   0.000
  0.006   0.000  -0.000   0.007   0.000   0.004   0.000  -0.000   0.018   0.000  -0.000  -0.000   0.000  -0.000   0.233  -0.000
  0.000  -0.013   0.000  -0.000  -0.001   0.000  -0.001  -0.000  -0.000  -0.000  -0.000   0.000  -0.015   0.000  -0.000   0.001
  0.000   0.000  -0.020   0.000  -0.000   0.000   0.000  -0.001   0.000  -0.000  -0.023   0.003  -0.000  -0.009  -0.000   0.000
 -0.001  -0.000   0.000  -0.013  -0.000  -0.000  -0.000   0.000  -0.001  -0.000  -0.000   0.000  -0.000   0.000  -0.015   0.000
 total augmentation occupancy for first ion, spin component:           2
 -0.000  -0.000   0.000   0.000   0.000   0.000  -0.000  -0.000   0.000   0.000   0.000  -0.000   0.000  -0.000  -0.000  -0.000
 -0.000  -0.000   0.000  -0.000   0.000   0.000   0.000  -0.000   0.000  -0.000   0.000   0.000  -0.000  -0.000  -0.000   0.000
  0.000   0.000   0.000   0.000  -0.000   0.000   0.000   0.000   0.000  -0.000   0.000   0.000  -0.000  -0.000  -0.000   0.000
  0.000  -0.000   0.000  -0.000   0.000   0.000   0.000  -0.000   0.000   0.000   0.000   0.000  -0.000  -0.000   0.000   0.000
  0.000   0.000  -0.000   0.000   0.000  -0.000  -0.000   0.000   0.000   0.000  -0.000   0.000   0.000   0.000  -0.000  -0.000
  0.000   0.000   0.000   0.000  -0.000   0.000   0.000  -0.000  -0.000  -0.000   0.000   0.000   0.000  -0.000   0.000  -0.000
 -0.000   0.000   0.000   0.000  -0.000   0.000  -0.000  -0.000  -0.000  -0.000   0.000   0.000  -0.000  -0.000  -0.000   0.000
 -0.000  -0.000   0.000  -0.000   0.000  -0.000  -0.000   0.000  -0.000   0.000  -0.000  -0.000  -0.000   0.000  -0.000   0.000
  0.000   0.000   0.000   0.000   0.000  -0.000  -0.000  -0.000   0.000  -0.000   0.000   0.000  -0.000  -0.000   0.000   0.000
  0.000  -0.000  -0.000   0.000   0.000  -0.000  -0.000   0.000  -0.000  -0.000  -0.000  -0.000   0.000   0.000   0.000   0.000
  0.000   0.000   0.000   0.000  -0.000   0.000   0.000  -0.000   0.000  -0.000   0.000   0.000  -0.000  -0.000  -0.000  -0.000
 -0.000   0.000   0.000   0.000   0.000   0.000   0.000  -0.000   0.000  -0.000   0.000   0.000   0.000  -0.000   0.000  -0.000
  0.000  -0.000  -0.000  -0.000   0.000   0.000  -0.000  -0.000  -0.000   0.000  -0.000   0.000   0.000  -0.000   0.000  -0.000
 -0.000  -0.000  -0.000  -0.000   0.000  -0.000  -0.000   0.000  -0.000   0.000  -0.000  -0.000  -0.000  -0.000  -0.000   0.000
 -0.000  -0.000  -0.000   0.000  -0.000   0.000  -0.000  -0.000   0.000   0.000  -0.000   0.000   0.000  -0.000   0.000  -0.000
 -0.000   0.000   0.000   0.000  -0.000  -0.000   0.000   0.000   0.000   0.000  -0.000  -0.000  -0.000   0.000  -0.000   0.000
  0.000   0.000  -0.000   0.000  -0.000   0.000   0.000   0.000   0.000  -0.000   0.000  -0.000   0.000   0.000   0.000  -0.000
  0.000   0.000   0.000  -0.000   0.000  -0.000   0.000   0.000  -0.000  -0.000  -0.000  -0.000  -0.000   0.000  -0.000   0.000


------------------------ aborting loop because EDIFF is reached ----------------------------------------


    CHARGE:  cpu time      0.0530: real time      0.0533
    FORLOC:  cpu time      0.0011: real time      0.0012
    FORNL :  cpu time      0.1193: real time      0.1198
    STRESS:  cpu time      0.1364: real time      0.1370
    FORCOR:  cpu time      0.0185: real time      0.0186
    FORHAR:  cpu time      0.0029: real time      0.0029
    MIXING:  cpu time      0.0006: real time      0.0006
    OFIELD:  cpu time      0.0000: real time      0.0000

 ---------------------------------------------------------------------------------------------

         DFTD3 V3.0 Rev 1        
 Edisp (eV)   -3.63948

 E6    (eV) :    -1.5221
 E8    (eV) :    -2.1174
 % E8        : 58.18
    FORVDW:  cpu time      0.0724: real time      0.0727

  FORCE on cell =-STRESS in cart. coord.  units (eV):
  Direction    XX          YY          ZZ          XY          YZ          ZX
  --------------------------------------------------------------------------------------
  Alpha Z   285.34744   285.34744   285.34744
  Ewald   58087.06902 58095.66351-63972.67135    -0.00000    -9.57995    -0.00000
  Hartree 61324.95127 61326.86468-59504.97070     0.00000    -1.48929    -0.00000
  E(xc)    -520.88683  -520.81107  -521.09967    -0.00013    -0.09607     0.00000
  Local  ************************122407.11895     0.00400     7.45734    -0.00001
  n-local  -175.22671  -175.45709  -180.72651     4.05739     0.38771     1.31592
  augment   759.83218   759.72751   753.61460    -0.00382     0.05726     0.00001
  Kinetic   742.20067   739.87415   735.83672   -15.33718     3.22395     2.46286
  Fock        0.00000     0.00000     0.00000     0.00000     0.00000     0.00000
  vdW        -4.31277    -4.32328    -3.82400     0.00000    -0.01411     0.00000
  -------------------------------------------------------------------------------------
  Total      -4.67669    -4.64784    -1.37451    -0.00000    -0.05316    -0.00000
  in kB     -44.25998   -43.98692   -13.00827    -0.00000    -0.50311    -0.00000
  external pressure =      -33.75 kB  Pullay stress =        0.00 kB


 VOLUME and BASIS-vectors are now :
 -----------------------------------------------------------------------------
  energy-cutoff  :      400.00
  volume of cell :      169.29
      direct lattice vectors                 reciprocal lattice vectors
     2.566797733  0.000000000  0.000000000     0.389590495 -0.224930177  0.000000000
     1.283398867  2.222912043  0.000000000     0.000000000  0.449860355  0.000000000
     0.000000000  0.000000000 29.670471191     0.000000000  0.000000000  0.033703543

  length of vectors
     2.566797733  2.566797733 29.670471191     0.449860355  0.449860355  0.033703543


 FORCES acting on ions
    electron-ion (+dipol)            ewald-force                    non-local-force                 convergence-correction
 -----------------------------------------------------------------------------------------------
   -.121E-04 -.877E-01 0.604E+04   0.103E-07 0.824E-01 -.603E+04   -.143E-12 -.637E-02 -.366E+01   -.985E-06 0.162E-01 0.176E+00
   0.101E-04 -.143E+00 0.433E+04   -.254E-07 0.137E+00 -.433E+04   -.253E-12 -.113E-01 0.365E+00   -.286E-05 0.234E-01 -.562E-01
   0.139E-05 -.996E-02 0.264E+04   0.242E-07 0.715E-02 -.264E+04   -.286E-12 -.127E-01 0.251E-01   -.618E-06 0.137E-01 0.130E+00
   -.236E-04 0.234E+00 0.964E+03   0.703E-09 -.236E+00 -.964E+03   -.441E-14 -.196E-03 -.796E+00   0.677E-06 -.690E-02 0.321E-01
   0.175E-04 -.757E-01 -.732E+03   -.245E-07 0.793E-01 0.731E+03   0.427E-13 0.190E-02 0.861E+00   -.413E-06 -.898E-02 -.161E+00
   0.326E-05 -.247E+00 -.241E+04   0.241E-07 0.247E+00 0.241E+04   -.610E-13 -.271E-02 -.862E-01   -.748E-06 0.123E-01 -.144E+00
   -.157E-04 0.218E+00 -.409E+04   0.956E-09 -.218E+00 0.409E+04   0.284E-12 0.126E-01 0.194E-01   0.151E-06 -.192E-01 -.196E+00
   0.104E-04 0.243E+00 -.580E+04   -.105E-07 -.236E+00 0.579E+04   -.249E-13 -.111E-02 0.410E+01   0.862E-06 -.987E-02 -.455E-01
   0.478E-07 0.992E+01 -.465E+03   0.214E-09 -.127E+02 0.469E+03   0.645E-10 0.287E+01 -.404E+01   -.390E-06 0.520E-04 0.151E-02
   -.106E-06 -.101E+02 -.479E+03   0.110E-10 0.129E+02 0.475E+03   -.645E-10 -.287E+01 0.402E+01   0.379E-06 0.135E-03 -.347E-02
 -----------------------------------------------------------------------------------------------
   -.878E-05 -.508E-02 -.561E+00   0.219E-12 -.568E-13 -.188E-11   -.482E-12 -.214E-01 0.805E+00   -.395E-05 0.209E-01 -.266E+00
 
 
 POSITION                                       TOTAL-FORCE (eV/Angst)
 -----------------------------------------------------------------------------------
      0.00000      0.00466     -0.13443         0.000000      0.005234      0.023536
      1.28340      0.74860      1.86403         0.000000      0.007083      0.019166
      2.56680      1.49817      3.89450        -0.000000     -0.001183      0.003595
      0.00000      0.02543      5.93727        -0.000000     -0.008810     -0.004752
      1.28340      0.76599      7.95983        -0.000000     -0.002862      0.008079
      2.56680      1.50981     10.00583         0.000000      0.010039     -0.007173
      0.00000      0.04026     12.03677        -0.000000     -0.005507     -0.007352
      1.28340      0.78488     14.03957        -0.000000     -0.007414      0.003223
      2.56680      0.80077     17.07141         0.000000      0.021717     -0.015039
      2.56680      1.23617     16.45311        -0.000000     -0.018297     -0.023282
 -----------------------------------------------------------------------------------
    total drift:                               -0.000013     -0.005598     -0.021790


--------------------------------------------------------------------------------------------------------



  FREE ENERGIE OF THE ION-ELECTRON SYSTEM (eV)
  ---------------------------------------------------
  free  energy   TOTEN  =       -40.87721459 eV

  energy  without entropy=      -40.84993696  energy(sigma->0) =      -40.86812205
 
 d Force = 0.3058572E-03[ 0.184E-03, 0.428E-03]  d Energy = 0.3245170E-03-0.187E-04
 d Force = 0.6551687E+01[ 0.654E+01, 0.656E+01]  d Ewald  = 0.6551687E+01-0.328E-06


--------------------------------------------------------------------------------------------------------


    POTLOK:  cpu time      0.0255: real time      0.0260


--------------------------------------------------------------------------------------------------------


 stress matrix after NEB project (eV)
     -4.67669     -0.00000     -0.00000
     -0.00000     -4.64784     -0.05316
     -0.00000     -0.05316     -1.37451
  FORCES: max atom, RMS     0.029611    0.017503
  FORCE total and by dimension    0.055348    0.023536
  Stress total and by dimension    6.735639    4.676695


--------------------------------------------------------------------------------------------------------


  
 reached required accuracy - stopping structural energy minimisation
     LOOP+:  cpu time      1.7987: real time      1.8209
    4ORBIT:  cpu time      0.0000: real time      0.0000

 total amount of memory used by VASP MPI-rank0    34706. kBytes
=======================================================================

   base      :      30000. kBytes
   nonl-proj :        813. kBytes
   fftplans  :        716. kBytes
   grid      :       1856. kBytes
   one-center:         62. kBytes
   wavefun   :       1259. kBytes
 
  
  
 General timing and accounting informations for this job:
 ========================================================
  
                  Total CPU time used (sec):      166.818
                            User time (sec):      165.980
                          System time (sec):        0.838
                         Elapsed time (sec):      171.258
  
                   Maximum memory used (kb):      233224.
                   Average memory used (kb):          N/A
  
                          Minor page faults:       262387
                          Major page faults:         6545
                 Voluntary context switches:         4327
