<?xml version="1.0" encoding="ISO-8859-1"?>
<modeling>
 <generator>
  <i name="program" type="string">vasp </i>
  <i name="version" type="string">6.3.2  </i>
  <i name="subversion" type="string">27Jun22 (build Aug 17 2022 15:43:34) complex                          parallel </i>
  <i name="platform" type="string">tv2STDVTST </i>
  <i name="date" type="string">2025 02 04 </i>
  <i name="time" type="string">14:10:28 </i>
 </generator>
 <incar>
  <i type="int" name="ISTART">     0</i>
  <i type="string" name="PREC">Normal</i>
  <i type="int" name="ISPIN">     2</i>
  <i type="int" name="ICHARG">     2</i>
  <i type="int" name="IBRION">     2</i>
  <i name="EDIFF">      0.00020000</i>
  <i name="EDIFFG">     -0.03000000</i>
  <i type="int" name="NSW">   800</i>
  <i type="int" name="ISIF">     2</i>
  <i type="int" name="ISYM">     1</i>
  <i name="ENCUT">    400.00000000</i>
  <i name="POTIM">      0.50000000</i>
  <i type="logical" name="LREAL"> F  </i>
  <i type="int" name="ISMEAR">     1</i>
  <i name="SIGMA">      0.20000000</i>
  <i type="logical" name="LWAVE"> F  </i>
  <i type="logical" name="LCHARG"> F  </i>
  <i type="string" name="GGA">PE</i>
  <i type="int" name="IVDW">    11</i>
 </incar>
 <primitive_cell>
  <structure name="primitive_cell" >
   <crystal>
    <varray name="basis" >
     <v>       2.56679773       0.00000000       0.00000000 </v>
     <v>       1.28339887       2.22291204       0.00000000 </v>
     <v>       0.00000000       0.00000000      29.67047119 </v>
    </varray>
    <i name="volume">    169.29275369 </i>
    <varray name="rec_basis" >
     <v>       0.38959050      -0.22493018       0.00000000 </v>
     <v>       0.00000000       0.44986035       0.00000000 </v>
     <v>       0.00000000       0.00000000       0.03370354 </v>
    </varray>
   </crystal>
   <varray name="positions" >
    <v>       0.00000000       0.00000000       0.00000000 </v>
    <v>       0.33333333       0.33333333       0.07063526 </v>
    <v>       0.66666667       0.66666667       0.13908594 </v>
    <v>       0.00000000       0.00000000       0.20816512 </v>
    <v>       0.33333333       0.33333333       0.27656240 </v>
    <v>       0.66666667       0.66666667       0.34556034 </v>
    <v>       0.00000000       0.00000000       0.41400593 </v>
    <v>       0.33333333       0.33333333       0.48139269 </v>
    <v>       0.83333333       0.33333333       0.53425930 </v>
    <v>       0.66553542       0.66892916       0.53425930 </v>
   </varray>
  </structure>
  <varray name="primitive_index" >
   <v type="int" >        1 </v>
   <v type="int" >        2 </v>
   <v type="int" >        3 </v>
   <v type="int" >        4 </v>
   <v type="int" >        5 </v>
   <v type="int" >        6 </v>
   <v type="int" >        7 </v>
   <v type="int" >        8 </v>
   <v type="int" >        9 </v>
   <v type="int" >       10 </v>
  </varray>
 </primitive_cell>
 <kpoints>
  <generation param="Monkhorst-Pack">
   <v type="int" name="divisions">       3        3        1 </v>
   <v name="usershift">      0.00000000       0.00000000       0.00000000 </v>
   <v name="genvec1">      0.33333333       0.00000000       0.00000000 </v>
   <v name="genvec2">      0.00000000       0.33333333       0.00000000 </v>
   <v name="genvec3">      0.00000000       0.00000000       1.00000000 </v>
   <v name="shift">      0.00000000       0.00000000       0.00000000 </v>
  </generation>
  <varray name="kpointlist" >
   <v>       0.00000000       0.00000000       0.00000000 </v>
   <v>       0.33333333       0.00000000       0.00000000 </v>
   <v>       0.00000000       0.33333333       0.00000000 </v>
   <v>      -0.33333333       0.33333333       0.00000000 </v>
  </varray>
  <varray name="weights" >
   <v>       0.11111111 </v>
   <v>       0.44444444 </v>
   <v>       0.22222222 </v>
   <v>       0.22222222 </v>
  </varray>
 </kpoints>
 <parameters>
  <separator name="general" >
   <i type="string" name="SYSTEM">unknown system</i>
   <i type="logical" name="LCOMPAT"> F  </i>
  </separator>
  <separator name="electronic" >
   <i type="string" name="PREC">normal</i>
   <i name="ENMAX">    400.00000000</i>
   <i name="ENAUG">    586.98000000</i>
   <i name="EDIFF">      0.00020000</i>
   <i type="int" name="IALGO">    38</i>
   <i type="int" name="IWAVPR">    11</i>
   <i type="int" name="NBANDS">    60</i>
   <i type="int" name="NBANDSLOW">    -1</i>
   <i type="int" name="NBANDSHIGH">    -1</i>
   <i name="NELECT">     90.00000000</i>
   <i type="int" name="TURBO">     0</i>
   <i type="int" name="IRESTART">     0</i>
   <i type="int" name="NREBOOT">     0</i>
   <i type="int" name="NMIN">     0</i>
   <i name="EREF">      0.00000000</i>
   <separator name="electronic smearing" >
    <i type="int" name="ISMEAR">     1</i>
    <i name="SIGMA">      0.20000000</i>
    <i name="KSPACING">      0.50000000</i>
    <i type="logical" name="KGAMMA"> T  </i>
    <i type="logical" name="KBLOWUP"> T  </i>
   </separator>
   <separator name="electronic projectors" >
    <i type="logical" name="LREAL"> F  </i>
    <v name="ROPT">      0.00000000      0.00000000</v>
    <i type="int" name="LMAXPAW">  -100</i>
    <i type="int" name="LMAXMIX">     2</i>
    <i type="logical" name="NLSPLINE"> F  </i>
   </separator>
   <separator name="electronic startup" >
    <i type="int" name="ISTART">     0</i>
    <i type="int" name="ICHARG">     2</i>
    <i type="int" name="INIWAV">     1</i>
   </separator>
   <separator name="electronic spin" >
    <i type="int" name="ISPIN">     2</i>
    <i type="logical" name="LNONCOLLINEAR"> F  </i>
    <v name="MAGMOM">      1.00000000      1.00000000      1.00000000      1.00000000      1.00000000      1.00000000      1.00000000      1.00000000      1.00000000      1.00000000</v>
    <i name="NUPDOWN">     -1.00000000</i>
    <i type="logical" name="LSORBIT"> F  </i>
    <v name="SAXIS">      0.00000000      0.00000000      1.00000000</v>
    <i type="logical" name="LSPIRAL"> F  </i>
    <v name="QSPIRAL">      0.00000000      0.00000000      0.00000000</v>
    <i type="logical" name="LZEROZ"> F  </i>
   </separator>
   <separator name="electronic exchange-correlation" >
    <i type="logical" name="LASPH"> F  </i>
    <i type="logical" name="LMETAGGA"> F  </i>
   </separator>
   <separator name="electronic convergence" >
    <i type="int" name="NELM">    60</i>
    <i type="int" name="NELMDL">    -5</i>
    <i type="int" name="NELMIN">     2</i>
    <i name="ENINI">    400.00000000</i>
    <separator name="electronic convergence detail" >
     <i type="logical" name="LDIAG"> T  </i>
     <i type="logical" name="LSUBROT"> F  </i>
     <i name="WEIMIN">      0.00100000</i>
     <i name="EBREAK">      0.00000083</i>
     <i name="DEPER">      0.30000000</i>
     <i type="int" name="NRMM">     4</i>
     <i name="TIME">      0.40000000</i>
    </separator>
   </separator>
   <separator name="electronic mixer" >
    <i name="AMIX">      0.40000000</i>
    <i name="BMIX">      1.00000000</i>
    <i name="AMIN">      0.10000000</i>
    <i name="AMIX_MAG">      1.60000000</i>
    <i name="BMIX_MAG">      1.00000000</i>
    <separator name="electronic mixer details" >
     <i type="int" name="IMIX">     4</i>
     <i type="logical" name="MIXFIRST"> F  </i>
     <i type="int" name="MAXMIX">   -45</i>
     <i name="WC">    100.00000000</i>
     <i type="int" name="INIMIX">     1</i>
     <i type="int" name="MIXPRE">     1</i>
     <i type="int" name="MREMOVE">     5</i>
    </separator>
   </separator>
   <separator name="electronic dipolcorrection" >
    <i type="logical" name="LDIPOL"> F  </i>
    <i type="logical" name="LMONO"> F  </i>
    <i type="int" name="IDIPOL">     0</i>
    <i name="EPSILON">      1.00000000</i>
    <v name="DIPOL">   -100.00000000   -100.00000000   -100.00000000</v>
    <i name="EFIELD">      0.00000000</i>
   </separator>
  </separator>
  <separator name="grids" >
   <i type="int" name="NGX">    14</i>
   <i type="int" name="NGY">    14</i>
   <i type="int" name="NGZ">   150</i>
   <i type="int" name="NGXF">    28</i>
   <i type="int" name="NGYF">    28</i>
   <i type="int" name="NGZF">   300</i>
   <i type="logical" name="ADDGRID"> F  </i>
  </separator>
  <separator name="ionic" >
   <i type="int" name="NSW">   800</i>
   <i type="int" name="IBRION">     2</i>
   <i type="int" name="MDALGO">     0</i>
   <i type="int" name="ISIF">     2</i>
   <i name="PSTRESS">      0.00000000</i>
   <i name="EDIFFG">     -0.03000000</i>
   <i type="int" name="NFREE">     1</i>
   <i name="POTIM">      0.50000000</i>
   <i name="SMASS">     -3.00000000</i>
   <i name="SCALEE">      1.00000000</i>
  </separator>
  <separator name="ionic md" >
   <i name="TEBEG">      0.00010000</i>
   <i name="TEEND">      0.00010000</i>
   <i type="int" name="NBLOCK">     1</i>
   <i type="int" name="KBLOCK">   800</i>
   <i type="int" name="NPACO">   256</i>
   <i name="APACO">     10.00000000</i>
  </separator>
  <separator name="symmetry" >
   <i type="int" name="ISYM">     1</i>
   <i name="SYMPREC">      0.00001000</i>
  </separator>
  <separator name="dos" >
   <i type="int" name="LORBIT">     0</i>
   <v name="RWIGS">     -1.00000000     -1.00000000</v>
   <i type="int" name="NEDOS">   301</i>
   <i name="EMIN">     10.00000000</i>
   <i name="EMAX">    -10.00000000</i>
   <i name="EFERMI">      0.00000000</i>
  </separator>
  <separator name="writing" >
   <i type="int" name="NWRITE">     2</i>
   <i type="logical" name="LWAVE"> F  </i>
   <i type="logical" name="LDOWNSAMPLE"> F  </i>
   <i type="logical" name="LCHARG"> F  </i>
   <i type="logical" name="LPARD"> F  </i>
   <i type="logical" name="LVTOT"> F  </i>
   <i type="logical" name="LVHAR"> F  </i>
   <i type="logical" name="LELF"> F  </i>
   <i type="logical" name="LOPTICS"> F  </i>
   <v name="STM">      0.00000000      0.00000000      0.00000000      0.00000000      0.00000000      0.00000000      0.00000000</v>
  </separator>
  <separator name="performance" >
   <i type="int" name="NPAR">     4</i>
   <i type="int" name="NSIM">     4</i>
   <i type="int" name="NBLK">    -1</i>
   <i type="logical" name="LPLANE"> T  </i>
   <i type="logical" name="LSCALAPACK"> T  </i>
   <i type="logical" name="LSCAAWARE"> F  </i>
   <i type="logical" name="LSCALU"> F  </i>
   <i type="logical" name="LASYNC"> F  </i>
   <i type="logical" name="LORBITALREAL"> F  </i>
  </separator>
  <separator name="miscellaneous" >
   <i type="int" name="IDIOT">     3</i>
   <i type="int" name="PHON_NSTRUCT">    -1</i>
   <i type="logical" name="LMUSIC"> F  </i>
   <v name="POMASS">     63.54600000      1.00000000</v>
   <v name="DARWINR">      0.00000000      0.00000000</v>
   <v name="DARWINV">      1.00000000      1.00000000</v>
   <i type="logical" name="LCORR"> T  </i>
  </separator>
  <i type="logical" name="GGA_COMPAT"> T  </i>
  <i type="logical" name="LBERRY"> F  </i>
  <i type="int" name="ICORELEVEL">     0</i>
  <i type="logical" name="LDAU"> F  </i>
  <i type="int" name="I_CONSTRAINED_M">     0</i>
  <separator name="electronic exchange-correlation" >
   <i type="string" name="GGA">PE</i>
   <i type="int" name="VOSKOWN">     0</i>
   <i type="logical" name="LHFCALC"> F  </i>
   <i type="string" name="PRECFOCK"></i>
   <i type="logical" name="LSYMGRAD"> F  </i>
   <i type="logical" name="LHFONE"> F  </i>
   <i type="logical" name="LRHFCALC"> F  </i>
   <i type="logical" name="LTHOMAS"> F  </i>
   <i type="logical" name="LMODELHF"> F  </i>
   <i type="logical" name="LFOCKACE"> F  </i>
   <i name="ENCUT4O">     -1.00000000</i>
   <i type="int" name="EXXOEP">     0</i>
   <i type="int" name="FOURORBIT">     0</i>
   <i name="AEXX">      0.00000000</i>
   <i name="HFALPHA">      0.00000000</i>
   <i name="MCALPHA">      0.00000000</i>
   <i name="ALDAX">      1.00000000</i>
   <i name="AGGAX">      1.00000000</i>
   <i name="ALDAC">      1.00000000</i>
   <i name="AGGAC">      1.00000000</i>
   <i type="int" name="NKREDX">     1</i>
   <i type="int" name="NKREDY">     1</i>
   <i type="int" name="NKREDZ">     1</i>
   <i type="logical" name="SHIFTRED"> F  </i>
   <i type="logical" name="ODDONLY"> F  </i>
   <i type="logical" name="EVENONLY"> F  </i>
   <i type="int" name="LMAXFOCK">     0</i>
   <i type="int" name="NMAXFOCKAE">     0</i>
   <i type="logical" name="LFOCKAEDFT"> F  </i>
   <i name="HFSCREEN">      0.00000000</i>
   <i name="HFSCREENC">      0.00000000</i>
   <i type="int" name="NBANDSGWLOW">     0</i>
  </separator>
  <separator name="vdW DFT" >
   <i type="logical" name="LUSE_VDW"> F  </i>
   <i name="Zab_VDW">     -0.84910000</i>
   <i name="PARAM1">      0.12340000</i>
   <i name="PARAM2">      1.00000000</i>
   <i name="PARAM3">      0.00000000</i>
  </separator>
  <separator name="model GW" >
   <i type="int" name="MODEL_GW">     0</i>
   <i name="MODEL_EPS0">     10.15756522</i>
   <i name="MODEL_ALPHA">      1.00000000</i>
  </separator>
  <separator name="linear response parameters" >
   <i type="logical" name="LEPSILON"> F  </i>
   <i type="logical" name="LRPA"> F  </i>
   <i type="logical" name="LNABLA"> F  </i>
   <i type="logical" name="LVEL"> F  </i>
   <i name="CSHIFT">      0.10000000</i>
   <i name="OMEGAMAX">     -1.00000000</i>
   <i name="DEG_THRESHOLD">      0.00200000</i>
   <i name="RTIME">     -0.10000000</i>
   <i name="WPLASMAI">      0.00000000</i>
   <v name="DFIELD">      0.00000000      0.00000000      0.00000000</v>
   <v name="WPLASMA">      0.00000000      0.00000000      0.00000000      0.00000000      0.00000000      0.00000000      0.00000000      0.00000000      0.00000000</v>
  </separator>
  <separator name="orbital magnetization" >
   <i type="logical" name="NUCIND"> F  </i>
   <v name="MAGPOS">      0.00000000      0.00000000      0.00000000</v>
   <i type="logical" name="LNICSALL"> T  </i>
   <i type="logical" name="ORBITALMAG"> F  </i>
   <i type="logical" name="LMAGBLOCH"> F  </i>
   <i type="logical" name="LCHIMAG"> F  </i>
   <i type="logical" name="LGAUGE"> T  </i>
   <i type="int" name="MAGATOM">     0</i>
   <v name="MAGDIPOL">      0.00000000      0.00000000      0.00000000</v>
   <v name="AVECCONST">      0.00000000      0.00000000      0.00000000</v>
  </separator>
  <separator name="response functions" >
   <i type="logical" name="LFINITE_TEMPERATURE"> F  </i>
   <i type="logical" name="LADDER"> F  </i>
   <i type="logical" name="LRPAFORCE"> F  </i>
   <i type="logical" name="LFXC"> F  </i>
   <i type="logical" name="LHARTREE"> T  </i>
   <i type="int" name="IBSE">     0</i>
   <v type="int" name="KPOINT">    -1     0     0     0</v>
   <i type="logical" name="LTCTC"> F  </i>
   <i type="logical" name="LTCTE"> F  </i>
   <i type="logical" name="LTETE"> F  </i>
   <i type="logical" name="LTRIPLET"> F  </i>
   <i type="logical" name="LFXCEPS"> F  </i>
   <i type="logical" name="LFXHEG"> F  </i>
   <i type="int" name="NATURALO">     2</i>
   <i type="logical" name="LHOLEGF"> F  </i>
   <i type="logical" name="L2ORDER"> F  </i>
   <i type="logical" name="LDMP1"> F  </i>
   <i type="logical" name="LMP2LT"> F  </i>
   <i type="logical" name="LSMP2LT"> F  </i>
   <i type="logical" name="LGWLF"> F  </i>
   <i name="ENCUTGW">     -2.00000000</i>
   <i name="ENCUTGWSOFT">     -2.00000000</i>
   <i name="ENCUTLF">     -1.00000000</i>
   <i type="logical" name="LESF_SPLINES"> F  </i>
   <i type="int" name="LMAXMP2">    -1</i>
   <i name="SCISSOR">      0.00000000</i>
   <i type="int" name="NOMEGA">     0</i>
   <i type="int" name="NOMEGAR">     0</i>
   <i type="int" name="NBANDSGW">    -1</i>
   <i type="int" name="NBANDSO">    -1</i>
   <i type="int" name="NBANDSV">    -1</i>
   <i type="int" name="NELMGW">     1</i>
   <i type="int" name="NELMHF">     1</i>
   <i type="int" name="DIM">     3</i>
   <i type="int" name="IESPILON">     4</i>
   <i type="int" name="ANTIRES">     0</i>
   <i name="OMEGAMAX">    -30.00000000</i>
   <i name="OMEGAMIN">    -30.00000000</i>
   <i name="OMEGATL">   -200.00000000</i>
   <i type="int" name="OMEGAGRID">     0</i>
   <i name="CSHIFT">     -0.10000000</i>
   <i type="logical" name="LSELFENERGY"> F  </i>
   <i type="logical" name="LSPECTRAL"> F  </i>
   <i type="logical" name="LSPECTRALGW"> F  </i>
   <i type="logical" name="LSINGLES"> F  </i>
   <i type="logical" name="LFERMIGW"> F  </i>
   <i type="logical" name="ODDONLYGW"> F  </i>
   <i type="logical" name="EVENONLYGW"> F  </i>
   <i type="int" name="NKREDLFX">     1</i>
   <i type="int" name="NKREDLFY">     1</i>
   <i type="int" name="NKREDLFZ">     1</i>
   <i type="int" name="MAXMEM">  2800</i>
   <i type="int" name="TELESCOPE">     0</i>
   <i type="int" name="NTAUPAR">    -1</i>
   <i type="int" name="NOMEGAPAR">    -1</i>
   <i name="DAMP_NEWTON">      0.80000001</i>
   <i name="LAMBDA">      1.00000000</i>
  </separator>
  <separator name="External order field" >
   <i name="OFIELD_KAPPA">      0.00000000</i>
   <v name="OFIELD_K">      0.00000000      0.00000000      0.00000000</v>
   <i name="OFIELD_Q6_NEAR">      0.00000000</i>
   <i name="OFIELD_Q6_FAR">      0.00000000</i>
   <i name="OFIELD_A">      0.00000000</i>
  </separator>
  <separator name="optional k-points parameters" >
   <i type="int" name="KPOINTS_OPT_MODE">     1</i>
   <i type="logical" name="LKPOINTS_OPT"> F  </i>
  </separator>
 </parameters>
 <atominfo>
  <atoms>      10 </atoms>
  <types>       2 </types>
  <array name="atoms" >
   <dimension dim="1">ion</dimension>
   <field type="string">element</field>
   <field type="int">atomtype</field>
   <set>
    <rc><c>Cu</c><c>   1</c></rc>
    <rc><c>Cu</c><c>   1</c></rc>
    <rc><c>Cu</c><c>   1</c></rc>
    <rc><c>Cu</c><c>   1</c></rc>
    <rc><c>Cu</c><c>   1</c></rc>
    <rc><c>Cu</c><c>   1</c></rc>
    <rc><c>Cu</c><c>   1</c></rc>
    <rc><c>Cu</c><c>   1</c></rc>
    <rc><c>H </c><c>   2</c></rc>
    <rc><c>H </c><c>   2</c></rc>
   </set>
  </array>
  <array name="atomtypes" >
   <dimension dim="1">type</dimension>
   <field type="int">atomspertype</field>
   <field type="string">element</field>
   <field>mass</field>
   <field>valence</field>
   <field type="string">pseudopotential</field>
   <set>
    <rc><c>   8</c><c>Cu</c><c>     63.54600000</c><c>     11.00000000</c><c>  PAW_PBE Cu 22Jun2005                  </c></rc>
    <rc><c>   2</c><c>H </c><c>      1.00000000</c><c>      1.00000000</c><c>  PAW_PBE H 15Jun2001                   </c></rc>
   </set>
  </array>
 </atominfo>
 <structure name="initialpos" >
  <crystal>
   <varray name="basis" >
    <v>       2.56679773       0.00000000       0.00000000 </v>
    <v>       1.28339887       2.22291204       0.00000000 </v>
    <v>       0.00000000       0.00000000      29.67047119 </v>
   </varray>
   <i name="volume">    169.29275369 </i>
   <varray name="rec_basis" >
    <v>       0.38959050      -0.22493018       0.00000000 </v>
    <v>       0.00000000       0.44986035       0.00000000 </v>
    <v>       0.00000000       0.00000000       0.03370354 </v>
   </varray>
  </crystal>
  <varray name="positions" >
   <v>       0.00000000       0.00000000       0.00000000 </v>
   <v>       0.33333333       0.33333333       0.07063526 </v>
   <v>       0.66666667       0.66666667       0.13908594 </v>
   <v>       0.00000000       0.00000000       0.20816512 </v>
   <v>       0.33333333       0.33333333       0.27656240 </v>
   <v>       0.66666667       0.66666667       0.34556034 </v>
   <v>       0.00000000       0.00000000       0.41400593 </v>
   <v>       0.33333333       0.33333333       0.48139269 </v>
   <v>       0.83333333       0.33333333       0.53425930 </v>
   <v>       0.66553542       0.66892916       0.53425930 </v>
  </varray>
 </structure>
 <calculation>
  <scstep>
   <time name="dav">    0.28    0.29</time>
   <time name="total">    0.31    0.32</time>
   <energy>
    <i name="alphaZ">    285.34744303 </i>
    <i name="ewald">  52650.10398896 </i>
    <i name="hartreedc"> -63700.69271573 </i>
    <i name="XCdc">    372.86094154 </i>
    <i name="pawpsdc">   9828.36862813 </i>
    <i name="pawaedc"> -10674.97285505 </i>
    <i name="eentropy">     -0.01621039 </i>
    <i name="bandstr">    884.77008137 </i>
    <i name="atom">  11152.61838693 </i>
    <i name="e_fr_energy">    798.38768879 </i>
    <i name="e_wo_entrp">    798.40389919 </i>
    <i name="e_0_energy">    798.39309226 </i>
   </energy>
  </scstep>
  <scstep>
   <time name="dav">    0.27    0.28</time>
   <time name="total">    0.27    0.28</time>
   <energy>
    <i name="e_fr_energy">     73.66937319 </i>
    <i name="e_wo_entrp">     73.68714735 </i>
    <i name="e_0_energy">     73.67529791 </i>
   </energy>
  </scstep>
  <scstep>
   <time name="dav">    0.28    0.28</time>
   <time name="total">    0.28    0.28</time>
   <energy>
    <i name="e_fr_energy">    -32.74734207 </i>
    <i name="e_wo_entrp">    -32.74187105 </i>
    <i name="e_0_energy">    -32.74551840 </i>
   </energy>
  </scstep>
  <scstep>
   <time name="dav">    0.30    0.30</time>
   <time name="total">    0.30    0.30</time>
   <energy>
    <i name="e_fr_energy">    -37.29821694 </i>
    <i name="e_wo_entrp">    -37.30489191 </i>
    <i name="e_0_energy">    -37.30044193 </i>
   </energy>
  </scstep>
  <scstep>
   <time name="dav">    0.32    0.33</time>
   <time name="total">    0.39    0.39</time>
   <energy>
    <i name="e_fr_energy">    -37.39948320 </i>
    <i name="e_wo_entrp">    -37.40694460 </i>
    <i name="e_0_energy">    -37.40197033 </i>
   </energy>
  </scstep>
  <scstep>
   <time name="dav">    0.35    0.35</time>
   <time name="total">    0.43    0.44</time>
   <energy>
    <i name="e_fr_energy">    -39.66710021 </i>
    <i name="e_wo_entrp">    -39.65438643 </i>
    <i name="e_0_energy">    -39.66286228 </i>
   </energy>
  </scstep>
  <scstep>
   <time name="dav">    0.39    0.39</time>
   <time name="total">    0.47    0.47</time>
   <energy>
    <i name="e_fr_energy">    -71.85689119 </i>
    <i name="e_wo_entrp">    -71.87026306 </i>
    <i name="e_0_energy">    -71.86134848 </i>
   </energy>
  </scstep>
  <scstep>
   <time name="dav">    0.40    0.40</time>
   <time name="total">    0.48    0.48</time>
   <energy>
    <i name="e_fr_energy">    -42.18384871 </i>
    <i name="e_wo_entrp">    -42.18658475 </i>
    <i name="e_0_energy">    -42.18476072 </i>
   </energy>
  </scstep>
  <scstep>
   <time name="dav">    0.38    0.38</time>
   <time name="total">    0.46    0.46</time>
   <energy>
    <i name="e_fr_energy">    -33.45274014 </i>
    <i name="e_wo_entrp">    -33.43887161 </i>
    <i name="e_0_energy">    -33.44811730 </i>
   </energy>
  </scstep>
  <scstep>
   <time name="dav">    0.38    0.38</time>
   <time name="total">    0.46    0.46</time>
   <energy>
    <i name="e_fr_energy">    -32.15622716 </i>
    <i name="e_wo_entrp">    -32.14633889 </i>
    <i name="e_0_energy">    -32.15293107 </i>
   </energy>
  </scstep>
  <scstep>
   <time name="dav">    0.36    0.37</time>
   <time name="total">    0.45    0.45</time>
   <energy>
    <i name="e_fr_energy">    -30.29897127 </i>
    <i name="e_wo_entrp">    -30.28787989 </i>
    <i name="e_0_energy">    -30.29527415 </i>
   </energy>
  </scstep>
  <scstep>
   <time name="dav">    0.41    0.41</time>
   <time name="total">    0.49    0.50</time>
   <energy>
    <i name="e_fr_energy">    -30.15086958 </i>
    <i name="e_wo_entrp">    -30.13769137 </i>
    <i name="e_0_energy">    -30.14647684 </i>
   </energy>
  </scstep>
  <scstep>
   <time name="dav">    0.41    0.41</time>
   <time name="total">    0.49    0.50</time>
   <energy>
    <i name="e_fr_energy">    -31.46342229 </i>
    <i name="e_wo_entrp">    -31.46922117 </i>
    <i name="e_0_energy">    -31.46535525 </i>
   </energy>
  </scstep>
  <scstep>
   <time name="dav">    0.35    0.35</time>
   <time name="total">    0.43    0.43</time>
   <energy>
    <i name="e_fr_energy">    -32.25022993 </i>
    <i name="e_wo_entrp">    -32.24796727 </i>
    <i name="e_0_energy">    -32.24947571 </i>
   </energy>
  </scstep>
  <scstep>
   <time name="dav">    0.33    0.34</time>
   <time name="total">    0.42    0.42</time>
   <energy>
    <i name="e_fr_energy">    -33.44649652 </i>
    <i name="e_wo_entrp">    -33.43224601 </i>
    <i name="e_0_energy">    -33.44174635 </i>
   </energy>
  </scstep>
  <scstep>
   <time name="dav">    0.38    0.38</time>
   <time name="total">    0.47    0.47</time>
   <energy>
    <i name="e_fr_energy">    -34.51816458 </i>
    <i name="e_wo_entrp">    -34.50518565 </i>
    <i name="e_0_energy">    -34.51383827 </i>
   </energy>
  </scstep>
  <scstep>
   <time name="dav">    0.38    0.38</time>
   <time name="total">    0.46    0.47</time>
   <energy>
    <i name="e_fr_energy">    -34.99781711 </i>
    <i name="e_wo_entrp">    -34.99063560 </i>
    <i name="e_0_energy">    -34.99542327 </i>
   </energy>
  </scstep>
  <scstep>
   <time name="dav">    0.32    0.32</time>
   <time name="total">    0.40    0.40</time>
   <energy>
    <i name="e_fr_energy">    -35.50552012 </i>
    <i name="e_wo_entrp">    -35.49470758 </i>
    <i name="e_0_energy">    -35.50191594 </i>
   </energy>
  </scstep>
  <scstep>
   <time name="dav">    0.31    0.32</time>
   <time name="total">    0.40    0.40</time>
   <energy>
    <i name="e_fr_energy">    -35.67241164 </i>
    <i name="e_wo_entrp">    -35.65726421 </i>
    <i name="e_0_energy">    -35.66736250 </i>
   </energy>
  </scstep>
  <scstep>
   <time name="dav">    0.32    0.32</time>
   <time name="total">    0.40    0.40</time>
   <energy>
    <i name="e_fr_energy">    -35.82359137 </i>
    <i name="e_wo_entrp">    -35.80322960 </i>
    <i name="e_0_energy">    -35.81680411 </i>
   </energy>
  </scstep>
  <scstep>
   <time name="dav">    0.31    0.32</time>
   <time name="total">    0.40    0.40</time>
   <energy>
    <i name="e_fr_energy">    -35.88082809 </i>
    <i name="e_wo_entrp">    -35.85791937 </i>
    <i name="e_0_energy">    -35.87319185 </i>
   </energy>
  </scstep>
  <scstep>
   <time name="dav">    0.31    0.31</time>
   <time name="total">    0.39    0.39</time>
   <energy>
    <i name="e_fr_energy">    -35.91401871 </i>
    <i name="e_wo_entrp">    -35.89002803 </i>
    <i name="e_0_energy">    -35.90602182 </i>
   </energy>
  </scstep>
  <scstep>
   <time name="dav">    0.32    0.32</time>
   <time name="total">    0.40    0.41</time>
   <energy>
    <i name="e_fr_energy">    -36.14662377 </i>
    <i name="e_wo_entrp">    -36.12220876 </i>
    <i name="e_0_energy">    -36.13848543 </i>
   </energy>
  </scstep>
  <scstep>
   <time name="dav">    0.33    0.33</time>
   <time name="total">    0.41    0.42</time>
   <energy>
    <i name="e_fr_energy">    -36.40343562 </i>
    <i name="e_wo_entrp">    -36.37933384 </i>
    <i name="e_0_energy">    -36.39540169 </i>
   </energy>
  </scstep>
  <scstep>
   <time name="dav">    0.36    0.37</time>
   <time name="total">    0.45    0.45</time>
   <energy>
    <i name="e_fr_energy">    -36.46587074 </i>
    <i name="e_wo_entrp">    -36.44287203 </i>
    <i name="e_0_energy">    -36.45820450 </i>
   </energy>
  </scstep>
  <scstep>
   <time name="dav">    0.35    0.35</time>
   <time name="total">    0.43    0.43</time>
   <energy>
    <i name="e_fr_energy">    -36.48668315 </i>
    <i name="e_wo_entrp">    -36.46460526 </i>
    <i name="e_0_energy">    -36.47932385 </i>
   </energy>
  </scstep>
  <scstep>
   <time name="dav">    0.30    0.30</time>
   <time name="total">    0.38    0.38</time>
   <energy>
    <i name="e_fr_energy">    -36.49080428 </i>
    <i name="e_wo_entrp">    -36.46836822 </i>
    <i name="e_0_energy">    -36.48332559 </i>
   </energy>
  </scstep>
  <scstep>
   <time name="dav">    0.28    0.28</time>
   <time name="total">    0.36    0.37</time>
   <energy>
    <i name="e_fr_energy">    -36.49368863 </i>
    <i name="e_wo_entrp">    -36.47160434 </i>
    <i name="e_0_energy">    -36.48632720 </i>
   </energy>
  </scstep>
  <scstep>
   <time name="dav">    0.23    0.24</time>
   <time name="total">    0.32    0.32</time>
   <energy>
    <i name="e_fr_energy">    -36.49521587 </i>
    <i name="e_wo_entrp">    -36.47248923 </i>
    <i name="e_0_energy">    -36.48764033 </i>
   </energy>
  </scstep>
  <scstep>
   <time name="dav">    0.23    0.24</time>
   <time name="total">    0.32    0.32</time>
   <energy>
    <i name="e_fr_energy">    -36.49720991 </i>
    <i name="e_wo_entrp">    -36.47461703 </i>
    <i name="e_0_energy">    -36.48967895 </i>
   </energy>
  </scstep>
  <scstep>
   <time name="dav">    0.23    0.23</time>
   <time name="total">    0.31    0.32</time>
   <energy>
    <i name="e_fr_energy">    -36.50064592 </i>
    <i name="e_wo_entrp">    -36.47784483 </i>
    <i name="e_0_energy">    -36.49304556 </i>
   </energy>
  </scstep>
  <scstep>
   <time name="dav">    0.24    0.24</time>
   <time name="total">    0.32    0.32</time>
   <energy>
    <i name="e_fr_energy">    -36.50313582 </i>
    <i name="e_wo_entrp">    -36.48015175 </i>
    <i name="e_0_energy">    -36.49547446 </i>
   </energy>
  </scstep>
  <scstep>
   <time name="dav">    0.21    0.21</time>
   <time name="total">    0.29    0.30</time>
   <energy>
    <i name="e_fr_energy">    -36.50430936 </i>
    <i name="e_wo_entrp">    -36.48123385 </i>
    <i name="e_0_energy">    -36.49661752 </i>
   </energy>
  </scstep>
  <scstep>
   <time name="dav">    0.21    0.21</time>
   <time name="total">    0.29    0.30</time>
   <energy>
    <i name="e_fr_energy">    -36.50466978 </i>
    <i name="e_wo_entrp">    -36.48161229 </i>
    <i name="e_0_energy">    -36.49698395 </i>
   </energy>
  </scstep>
  <scstep>
   <time name="dav">    0.20    0.20</time>
   <time name="total">    0.23    0.23</time>
   <energy>
    <i name="alphaZ">    285.34744303 </i>
    <i name="ewald">  52650.10398896 </i>
    <i name="hartreedc"> -63622.17228306 </i>
    <i name="XCdc">    363.25898693 </i>
    <i name="pawpsdc">  10583.15524734 </i>
    <i name="pawaedc"> -11445.52540409 </i>
    <i name="eentropy">     -0.02305497 </i>
    <i name="bandstr">     -3.26806305 </i>
    <i name="atom">  11152.61838693 </i>
    <i name="e_fr_energy">    -36.50475198 </i>
    <i name="e_wo_entrp">    -36.48169701 </i>
    <i name="e_0_energy">    -36.49706699 </i>
   </energy>
  </scstep>
  <structure>
   <crystal>
    <varray name="basis" >
     <v>       2.56679773       0.00000000       0.00000000 </v>
     <v>       1.28339887       2.22291204       0.00000000 </v>
     <v>       0.00000000       0.00000000      29.67047119 </v>
    </varray>
    <i name="volume">    169.29275369 </i>
    <varray name="rec_basis" >
     <v>       0.38959050      -0.22493018       0.00000000 </v>
     <v>       0.00000000       0.44986035       0.00000000 </v>
     <v>       0.00000000       0.00000000       0.03370354 </v>
    </varray>
   </crystal>
   <varray name="positions" >
    <v>       0.00000000       0.00000000       0.00000000 </v>
    <v>       0.33333333       0.33333333       0.07063526 </v>
    <v>       0.66666667       0.66666667       0.13908594 </v>
    <v>       0.00000000       0.00000000       0.20816512 </v>
    <v>       0.33333333       0.33333333       0.27656240 </v>
    <v>       0.66666667       0.66666667       0.34556034 </v>
    <v>       0.00000000       0.00000000       0.41400593 </v>
    <v>       0.33333333       0.33333333       0.48139269 </v>
    <v>       0.83333333       0.33333333       0.53425930 </v>
    <v>       0.66553542       0.66892916       0.53425930 </v>
   </varray>
  </structure>
  <varray name="forces" >
   <v>      -0.00000000      -0.00271802       0.47222016 </v>
   <v>       0.00000000       0.00464053      -0.39419409 </v>
   <v>      -0.00000000      -0.00492324       0.00165925 </v>
   <v>       0.00000000       0.00773049      -0.00439286 </v>
   <v>      -0.00000000      -0.01016010      -0.03058865 </v>
   <v>       0.00000000       0.01287486      -0.04895756 </v>
   <v>      -0.00000000      -0.00938496      -0.17702163 </v>
   <v>       0.00000000       0.16751672      -1.13637101 </v>
   <v>      -0.00000000      -1.13054146       0.71854432 </v>
   <v>       0.00000000       0.96496519       0.59910208 </v>
  </varray>
  <varray name="stress" >
   <v>     -43.71654517      -0.00000000      -0.00000000 </v>
   <v>      -0.00000000     -29.83900746      -2.47368055 </v>
   <v>      -0.00000000      -2.47367468       1.06063743 </v>
  </varray>
  <energy>
   <i name="e_fr_energy">    -40.18323092 </i>
   <i name="e_wo_entrp">    -40.16017595 </i>
   <i name="e_0_energy">    -40.17554593 </i>
  </energy>
  <time name="totalsc">   14.03   14.20</time>
 </calculation>
 <calculation>
  <scstep>
   <time name="dav">    0.28    0.29</time>
   <time name="total">    0.36    0.37</time>
   <energy>
    <i name="alphaZ">    285.34744303 </i>
    <i name="ewald">  53023.26646460 </i>
    <i name="hartreedc"> -63996.96509656 </i>
    <i name="XCdc">    363.21483043 </i>
    <i name="pawpsdc">  10583.11965433 </i>
    <i name="pawaedc"> -11445.49088716 </i>
    <i name="eentropy">     -0.02250683 </i>
    <i name="bandstr">     -1.60879778 </i>
    <i name="atom">  11152.61838693 </i>
    <i name="e_fr_energy">    -36.52050901 </i>
    <i name="e_wo_entrp">    -36.49800217 </i>
    <i name="e_0_energy">    -36.51300673 </i>
   </energy>
  </scstep>
  <scstep>
   <time name="dav">    0.37    0.37</time>
   <time name="total">    0.45    0.45</time>
   <energy>
    <i name="e_fr_energy">    -36.56598393 </i>
    <i name="e_wo_entrp">    -36.53875361 </i>
    <i name="e_0_energy">    -36.55690716 </i>
   </energy>
  </scstep>
  <scstep>
   <time name="dav">    0.36    0.37</time>
   <time name="total">    0.44    0.45</time>
   <energy>
    <i name="e_fr_energy">    -36.56981150 </i>
    <i name="e_wo_entrp">    -36.55540037 </i>
    <i name="e_0_energy">    -36.56500779 </i>
   </energy>
  </scstep>
  <scstep>
   <time name="dav">    0.39    0.39</time>
   <time name="total">    0.47    0.47</time>
   <energy>
    <i name="e_fr_energy">    -36.56763888 </i>
    <i name="e_wo_entrp">    -36.53665513 </i>
    <i name="e_0_energy">    -36.55731096 </i>
   </energy>
  </scstep>
  <scstep>
   <time name="dav">    0.38    0.39</time>
   <time name="total">    0.47    0.47</time>
   <energy>
    <i name="e_fr_energy">    -36.56057174 </i>
    <i name="e_wo_entrp">    -36.54029159 </i>
    <i name="e_0_energy">    -36.55381169 </i>
   </energy>
  </scstep>
  <scstep>
   <time name="dav">    0.43    0.44</time>
   <time name="total">    0.51    0.52</time>
   <energy>
    <i name="e_fr_energy">    -36.55826097 </i>
    <i name="e_wo_entrp">    -36.53544846 </i>
    <i name="e_0_energy">    -36.55065680 </i>
   </energy>
  </scstep>
  <scstep>
   <time name="dav">    0.34    0.34</time>
   <time name="total">    0.42    0.42</time>
   <energy>
    <i name="e_fr_energy">    -36.55819029 </i>
    <i name="e_wo_entrp">    -36.53452907 </i>
    <i name="e_0_energy">    -36.55030322 </i>
   </energy>
  </scstep>
  <scstep>
   <time name="dav">    0.25    0.25</time>
   <time name="total">    0.27    0.27</time>
   <energy>
    <i name="alphaZ">    285.34744303 </i>
    <i name="ewald">  53023.26646460 </i>
    <i name="hartreedc"> -63992.58776868 </i>
    <i name="XCdc">    363.09523617 </i>
    <i name="pawpsdc">  10587.50812404 </i>
    <i name="pawaedc"> -11450.06563870 </i>
    <i name="eentropy">     -0.02319977 </i>
    <i name="bandstr">     -5.71729794 </i>
    <i name="atom">  11152.61838693 </i>
    <i name="e_fr_energy">    -36.55825031 </i>
    <i name="e_wo_entrp">    -36.53505055 </i>
    <i name="e_0_energy">    -36.55051706 </i>
   </energy>
  </scstep>
  <structure>
   <crystal>
    <varray name="basis" >
     <v>       2.56679773       0.00000000       0.00000000 </v>
     <v>       1.28339887       2.22291204       0.00000000 </v>
     <v>       0.00000000       0.00000000      29.67047119 </v>
    </varray>
    <i name="volume">    169.29275369 </i>
    <varray name="rec_basis" >
     <v>       0.38959050      -0.22493018       0.00000000 </v>
     <v>       0.00000000       0.44986035       0.00000000 </v>
     <v>       0.00000000       0.00000000       0.03370354 </v>
    </varray>
   </crystal>
   <varray name="positions" >
    <v>       0.00002949      -0.00005899       0.00076781 </v>
    <v>       0.33328298       0.33343404       0.06999432 </v>
    <v>       0.66672009       0.66655982       0.13908864 </v>
    <v>      -0.00008389       0.00016777       0.20815797 </v>
    <v>       0.33344358       0.33311283       0.27651266 </v>
    <v>       0.66652696       0.66694608       0.34548074 </v>
    <v>       0.00010184      -0.00020368       0.41371811 </v>
    <v>       0.33151557       0.33696886       0.47954501 </v>
    <v>       0.84560110       0.30879781       0.53542762 </v>
    <v>       0.65506436       0.68987127       0.53523341 </v>
   </varray>
  </structure>
  <varray name="forces" >
   <v>      -0.00000000      -0.00143131       0.29916587 </v>
   <v>       0.00000000       0.00248641      -0.14386383 </v>
   <v>      -0.00000000      -0.00236543      -0.08134807 </v>
   <v>       0.00000000       0.00367248      -0.01150664 </v>
   <v>      -0.00000000      -0.00406181      -0.03055533 </v>
   <v>       0.00000000       0.00636353      -0.08336323 </v>
   <v>       0.00000000       0.00787431      -0.40486068 </v>
   <v>       0.00000000       0.10897054      -0.60745955 </v>
   <v>       0.00000000       0.85228407       0.57474383 </v>
   <v>      -0.00000000      -0.97379279       0.48904762 </v>
  </varray>
  <varray name="stress" >
   <v>     -40.74443091      -0.00000000      -0.00000000 </v>
   <v>      -0.00000000     -42.59369954      -2.13013557 </v>
   <v>      -0.00000000      -2.13012877       7.82582272 </v>
  </varray>
  <energy>
   <i name="e_fr_energy">    -40.26434365 </i>
   <i name="e_wo_entrp">    -40.24114389 </i>
   <i name="e_0_energy">    -40.25661040 </i>
  </energy>
  <time name="totalsc">    3.86    3.94</time>
 </calculation>
 <calculation>
  <scstep>
   <time name="dav">    0.28    0.29</time>
   <time name="total">    0.36    0.37</time>
   <energy>
    <i name="alphaZ">    285.34744303 </i>
    <i name="ewald">  52977.70655752 </i>
    <i name="hartreedc"> -63946.68329802 </i>
    <i name="XCdc">    363.09956148 </i>
    <i name="pawpsdc">  10587.76489374 </i>
    <i name="pawaedc"> -11450.32698414 </i>
    <i name="eentropy">     -0.02332959 </i>
    <i name="bandstr">     -6.06973204 </i>
    <i name="atom">  11152.61838693 </i>
    <i name="e_fr_energy">    -36.56650108 </i>
    <i name="e_wo_entrp">    -36.54317149 </i>
    <i name="e_0_energy">    -36.55872455 </i>
   </energy>
  </scstep>
  <scstep>
   <time name="dav">    0.34    0.34</time>
   <time name="total">    0.42    0.42</time>
   <energy>
    <i name="e_fr_energy">    -36.56713939 </i>
    <i name="e_wo_entrp">    -36.54391818 </i>
    <i name="e_0_energy">    -36.55939899 </i>
   </energy>
  </scstep>
  <scstep>
   <time name="dav">    0.23    0.23</time>
   <time name="total">    0.25    0.25</time>
   <energy>
    <i name="alphaZ">    285.34744303 </i>
    <i name="ewald">  52977.70655752 </i>
    <i name="hartreedc"> -63946.98746714 </i>
    <i name="XCdc">    363.11112924 </i>
    <i name="pawpsdc">  10587.46357011 </i>
    <i name="pawaedc"> -11450.03470705 </i>
    <i name="eentropy">     -0.02357299 </i>
    <i name="bandstr">     -5.76846137 </i>
    <i name="atom">  11152.61838693 </i>
    <i name="e_fr_energy">    -36.56712171 </i>
    <i name="e_wo_entrp">    -36.54354872 </i>
    <i name="e_0_energy">    -36.55926405 </i>
   </energy>
  </scstep>
  <structure>
   <crystal>
    <varray name="basis" >
     <v>       2.56679773       0.00000000       0.00000000 </v>
     <v>       1.28339887       2.22291204       0.00000000 </v>
     <v>       0.00000000       0.00000000      29.67047119 </v>
    </varray>
    <i name="volume">    169.29275369 </i>
    <varray name="rec_basis" >
     <v>       0.38959050      -0.22493018       0.00000000 </v>
     <v>       0.00000000       0.44986035       0.00000000 </v>
     <v>       0.00000000       0.00000000       0.03370354 </v>
    </varray>
   </crystal>
   <varray name="positions" >
    <v>       0.00002591      -0.00005182       0.00067452 </v>
    <v>       0.33328910       0.33342181       0.07007220 </v>
    <v>       0.66671360       0.66657280       0.13908831 </v>
    <v>      -0.00007369       0.00014739       0.20815884 </v>
    <v>       0.33343019       0.33313962       0.27651870 </v>
    <v>       0.66654393       0.66691213       0.34549041 </v>
    <v>       0.00008947      -0.00017893       0.41375308 </v>
    <v>       0.33173642       0.33652716       0.47976950 </v>
    <v>       0.84411062       0.31177876       0.53528567 </v>
    <v>       0.65633655       0.68732690       0.53511506 </v>
   </varray>
  </structure>
  <varray name="forces" >
   <v>      -0.00000000      -0.00248490       0.33319553 </v>
   <v>       0.00000000       0.00287594      -0.17507299 </v>
   <v>      -0.00000000      -0.00331166      -0.06270744 </v>
   <v>       0.00000000       0.00470187      -0.00698760 </v>
   <v>      -0.00000000      -0.00660060      -0.03347594 </v>
   <v>       0.00000000       0.00772745      -0.08320026 </v>
   <v>       0.00000000       0.00486234      -0.37912368 </v>
   <v>       0.00000000       0.11959475      -0.67313278 </v>
   <v>       0.00000000       0.80625680       0.58362263 </v>
   <v>      -0.00000000      -0.93362199       0.49688253 </v>
  </varray>
  <varray name="stress" >
   <v>     -45.21407236      -0.00000000      -0.00000000 </v>
   <v>      -0.00000000     -46.44860060      -2.16556320 </v>
   <v>      -0.00000000      -2.16555780       2.60157114 </v>
  </varray>
  <energy>
   <i name="e_fr_energy">    -40.26521781 </i>
   <i name="e_wo_entrp">    -40.24164482 </i>
   <i name="e_0_energy">    -40.25736015 </i>
  </energy>
  <time name="totalsc">    1.50    1.78</time>
 </calculation>
 <calculation>
  <scstep>
   <time name="dav">    0.28    0.28</time>
   <time name="total">    0.36    0.37</time>
   <energy>
    <i name="alphaZ">    285.34744303 </i>
    <i name="ewald">  53487.80596036 </i>
    <i name="hartreedc"> -64456.58733697 </i>
    <i name="XCdc">    363.17373253 </i>
    <i name="pawpsdc">  10587.21512064 </i>
    <i name="pawaedc"> -11449.75503214 </i>
    <i name="eentropy">     -0.01905655 </i>
    <i name="bandstr">     -6.40764341 </i>
    <i name="atom">  11152.61838693 </i>
    <i name="e_fr_energy">    -36.60842558 </i>
    <i name="e_wo_entrp">    -36.58936904 </i>
    <i name="e_0_energy">    -36.60207340 </i>
   </energy>
  </scstep>
  <scstep>
   <time name="dav">    0.41    0.42</time>
   <time name="total">    0.50    0.50</time>
   <energy>
    <i name="e_fr_energy">    -36.71130600 </i>
    <i name="e_wo_entrp">    -36.67630953 </i>
    <i name="e_0_energy">    -36.69964051 </i>
   </energy>
  </scstep>
  <scstep>
   <time name="dav">    0.45    0.46</time>
   <time name="total">    0.53    0.54</time>
   <energy>
    <i name="e_fr_energy">    -36.67819662 </i>
    <i name="e_wo_entrp">    -36.66064573 </i>
    <i name="e_0_energy">    -36.67234632 </i>
   </energy>
  </scstep>
  <scstep>
   <time name="dav">    0.37    0.37</time>
   <time name="total">    0.45    0.45</time>
   <energy>
    <i name="e_fr_energy">    -36.67471719 </i>
    <i name="e_wo_entrp">    -36.65277622 </i>
    <i name="e_0_energy">    -36.66740353 </i>
   </energy>
  </scstep>
  <scstep>
   <time name="dav">    0.42    0.42</time>
   <time name="total">    0.50    0.50</time>
   <energy>
    <i name="e_fr_energy">    -36.67386771 </i>
    <i name="e_wo_entrp">    -36.64855060 </i>
    <i name="e_0_energy">    -36.66542867 </i>
   </energy>
  </scstep>
  <scstep>
   <time name="dav">    0.33    0.34</time>
   <time name="total">    0.42    0.42</time>
   <energy>
    <i name="e_fr_energy">    -36.67348790 </i>
    <i name="e_wo_entrp">    -36.64955789 </i>
    <i name="e_0_energy">    -36.66551123 </i>
   </energy>
  </scstep>
  <scstep>
   <time name="dav">    0.26    0.26</time>
   <time name="total">    0.35    0.35</time>
   <energy>
    <i name="e_fr_energy">    -36.67340487 </i>
    <i name="e_wo_entrp">    -36.64989266 </i>
    <i name="e_0_energy">    -36.66556747 </i>
   </energy>
  </scstep>
  <scstep>
   <time name="dav">    0.22    0.22</time>
   <time name="total">    0.24    0.25</time>
   <energy>
    <i name="alphaZ">    285.34744303 </i>
    <i name="ewald">  53487.80596036 </i>
    <i name="hartreedc"> -64454.82421985 </i>
    <i name="XCdc">    363.19413588 </i>
    <i name="pawpsdc">  10605.46362345 </i>
    <i name="pawaedc"> -11468.25309401 </i>
    <i name="eentropy">     -0.02318275 </i>
    <i name="bandstr">     -8.00247836 </i>
    <i name="atom">  11152.61838693 </i>
    <i name="e_fr_energy">    -36.67342531 </i>
    <i name="e_wo_entrp">    -36.65024256 </i>
    <i name="e_0_energy">    -36.66569773 </i>
   </energy>
  </scstep>
  <structure>
   <crystal>
    <varray name="basis" >
     <v>       2.56679773       0.00000000       0.00000000 </v>
     <v>       1.28339887       2.22291204       0.00000000 </v>
     <v>       0.00000000       0.00000000      29.67047119 </v>
    </varray>
    <i name="volume">    169.29275369 </i>
    <varray name="rec_basis" >
     <v>       0.38959050      -0.22493018       0.00000000 </v>
     <v>       0.00000000       0.44986035       0.00000000 </v>
     <v>       0.00000000       0.00000000       0.03370354 </v>
    </varray>
   </crystal>
   <varray name="positions" >
    <v>       0.00006946      -0.00013892       0.00165190 </v>
    <v>       0.33322921       0.33354157       0.06941982 </v>
    <v>       0.66677989       0.66644022       0.13899040 </v>
    <v>      -0.00017251       0.00034501       0.20814358 </v>
    <v>       0.33356451       0.33287097       0.27643652 </v>
    <v>       0.66638046       0.66723908       0.34531189 </v>
    <v>       0.00009751      -0.00019502       0.41298338 </v>
    <v>       0.32940771       0.34118457       0.47762164 </v>
    <v>       0.84274490       0.31451020       0.53689444 </v>
    <v>       0.66010094       0.67979812       0.53647271 </v>
   </varray>
  </structure>
  <varray name="forces" >
   <v>      -0.00000000      -0.00094173       0.10591288 </v>
   <v>       0.00000000       0.00147995       0.11119962 </v>
   <v>       0.00000000       0.00000670      -0.12171441 </v>
   <v>       0.00000000       0.00099199      -0.03299011 </v>
   <v>      -0.00000000      -0.00010276      -0.04168237 </v>
   <v>       0.00000000       0.00133708      -0.15679489 </v>
   <v>       0.00000000       0.02727696      -0.51569507 </v>
   <v>       0.00000000       0.07316457      -0.32046995 </v>
   <v>       0.00000000       0.72358889       0.50952997 </v>
   <v>      -0.00000000      -0.82680166       0.46270433 </v>
  </varray>
  <varray name="stress" >
   <v>     -41.26100190      -0.00000000      -0.00000000 </v>
   <v>      -0.00000000     -43.18731929      -2.17317979 </v>
   <v>      -0.00000000      -2.17317427      13.22732710 </v>
  </varray>
  <energy>
   <i name="e_fr_energy">    -40.37965393 </i>
   <i name="e_wo_entrp">    -40.35647118 </i>
   <i name="e_0_energy">    -40.37192634 </i>
  </energy>
  <time name="totalsc">    3.83    3.90</time>
 </calculation>
 <calculation>
  <scstep>
   <time name="dav">    0.32    0.32</time>
   <time name="total">    0.40    0.40</time>
   <energy>
    <i name="alphaZ">    285.34744303 </i>
    <i name="ewald">  54784.81512140 </i>
    <i name="hartreedc"> -65750.84137228 </i>
    <i name="XCdc">    363.48936162 </i>
    <i name="pawpsdc">  10605.34234044 </i>
    <i name="pawaedc"> -11468.12718963 </i>
    <i name="eentropy">     -0.01653174 </i>
    <i name="bandstr">     -8.95798814 </i>
    <i name="atom">  11152.61838693 </i>
    <i name="e_fr_energy">    -36.33042837 </i>
    <i name="e_wo_entrp">    -36.31389662 </i>
    <i name="e_0_energy">    -36.32491779 </i>
   </energy>
  </scstep>
  <scstep>
   <time name="dav">    0.38    0.39</time>
   <time name="total">    0.46    0.47</time>
   <energy>
    <i name="e_fr_energy">    -36.83471682 </i>
    <i name="e_wo_entrp">    -36.80193792 </i>
    <i name="e_0_energy">    -36.82379052 </i>
   </energy>
  </scstep>
  <scstep>
   <time name="dav">    0.40    0.40</time>
   <time name="total">    0.48    0.49</time>
   <energy>
    <i name="e_fr_energy">    -36.77354936 </i>
    <i name="e_wo_entrp">    -36.75659319 </i>
    <i name="e_0_energy">    -36.76789730 </i>
   </energy>
  </scstep>
  <scstep>
   <time name="dav">    0.39    0.39</time>
   <time name="total">    0.47    0.48</time>
   <energy>
    <i name="e_fr_energy">    -36.74013756 </i>
    <i name="e_wo_entrp">    -36.71922229 </i>
    <i name="e_0_energy">    -36.73316580 </i>
   </energy>
  </scstep>
  <scstep>
   <time name="dav">    0.36    0.37</time>
   <time name="total">    0.45    0.45</time>
   <energy>
    <i name="e_fr_energy">    -36.73728078 </i>
    <i name="e_wo_entrp">    -36.71146862 </i>
    <i name="e_0_energy">    -36.72867672 </i>
   </energy>
  </scstep>
  <scstep>
   <time name="dav">    0.32    0.32</time>
   <time name="total">    0.40    0.41</time>
   <energy>
    <i name="e_fr_energy">    -36.73540898 </i>
    <i name="e_wo_entrp">    -36.71515479 </i>
    <i name="e_0_energy">    -36.72865758 </i>
   </energy>
  </scstep>
  <scstep>
   <time name="dav">    0.37    0.38</time>
   <time name="total">    0.46    0.46</time>
   <energy>
    <i name="e_fr_energy">    -36.73327882 </i>
    <i name="e_wo_entrp">    -36.71045401 </i>
    <i name="e_0_energy">    -36.72567055 </i>
   </energy>
  </scstep>
  <scstep>
   <time name="dav">    0.38    0.38</time>
   <time name="total">    0.47    0.47</time>
   <energy>
    <i name="e_fr_energy">    -36.73356559 </i>
    <i name="e_wo_entrp">    -36.71207756 </i>
    <i name="e_0_energy">    -36.72640291 </i>
   </energy>
  </scstep>
  <scstep>
   <time name="dav">    0.27    0.28</time>
   <time name="total">    0.30    0.30</time>
   <energy>
    <i name="alphaZ">    285.34744303 </i>
    <i name="ewald">  54784.81512140 </i>
    <i name="hartreedc"> -65744.20284382 </i>
    <i name="XCdc">    363.47170141 </i>
    <i name="pawpsdc">  10663.33517672 </i>
    <i name="pawaedc"> -11527.03755574 </i>
    <i name="eentropy">     -0.02157125 </i>
    <i name="bandstr">    -15.05951106 </i>
    <i name="atom">  11152.61838693 </i>
    <i name="e_fr_energy">    -36.73365238 </i>
    <i name="e_wo_entrp">    -36.71208113 </i>
    <i name="e_0_energy">    -36.72646196 </i>
   </energy>
  </scstep>
  <structure>
   <crystal>
    <varray name="basis" >
     <v>       2.56679773       0.00000000       0.00000000 </v>
     <v>       1.28339887       2.22291204       0.00000000 </v>
     <v>       0.00000000       0.00000000      29.67047119 </v>
    </varray>
    <i name="volume">    169.29275369 </i>
    <varray name="rec_basis" >
     <v>       0.38959050      -0.22493018       0.00000000 </v>
     <v>       0.00000000       0.44986035       0.00000000 </v>
     <v>       0.00000000       0.00000000       0.03370354 </v>
    </varray>
   </crystal>
   <varray name="positions" >
    <v>       0.00017821      -0.00035641       0.00409259 </v>
    <v>       0.33307968       0.33384064       0.06779073 </v>
    <v>       0.66694542       0.66610916       0.13874592 </v>
    <v>      -0.00041926       0.00083852       0.20810547 </v>
    <v>       0.33389995       0.33220011       0.27623131 </v>
    <v>       0.66597223       0.66805553       0.34486609 </v>
    <v>       0.00011760      -0.00023520       0.41106133 </v>
    <v>       0.32359254       0.35281492       0.47225806 </v>
    <v>       0.83933447       0.32133107       0.54091181 </v>
    <v>       0.66950125       0.66099749       0.53986298 </v>
   </varray>
  </structure>
  <varray name="forces" >
   <v>       0.00000000       0.00207462      -0.66589672 </v>
   <v>      -0.00000000      -0.00305214       1.01439831 </v>
   <v>       0.00000000       0.00479305      -0.22824063 </v>
   <v>      -0.00000000      -0.00496111      -0.08338465 </v>
   <v>       0.00000000       0.00980846      -0.06484377 </v>
   <v>      -0.00000000      -0.00843888      -0.38665537 </v>
   <v>       0.00000000       0.10404794      -1.04501394 </v>
   <v>      -0.00000000      -0.04651967       0.76118143 </v>
   <v>      -0.00000000      -0.16262572       0.37867693 </v>
   <v>       0.00000000       0.10487345       0.31977842 </v>
  </varray>
  <varray name="stress" >
   <v>     -30.52867939      -0.00000000      -0.00000000 </v>
   <v>      -0.00000000     -26.95341067      -2.92436530 </v>
   <v>      -0.00000000      -2.92436109      41.76461490 </v>
  </varray>
  <energy>
   <i name="e_fr_energy">    -40.46982375 </i>
   <i name="e_wo_entrp">    -40.44825250 </i>
   <i name="e_0_energy">    -40.46263333 </i>
  </energy>
  <time name="totalsc">    4.37    4.44</time>
 </calculation>
 <calculation>
  <scstep>
   <time name="dav">    0.28    0.28</time>
   <time name="total">    0.36    0.37</time>
   <energy>
    <i name="alphaZ">    285.34744303 </i>
    <i name="ewald">  54451.03586736 </i>
    <i name="hartreedc"> -65411.71220070 </i>
    <i name="XCdc">    363.40147464 </i>
    <i name="pawpsdc">  10663.06042957 </i>
    <i name="pawaedc"> -11526.75842921 </i>
    <i name="eentropy">     -0.02469469 </i>
    <i name="bandstr">    -13.69383350 </i>
    <i name="atom">  11152.61838693 </i>
    <i name="e_fr_energy">    -36.72555656 </i>
    <i name="e_wo_entrp">    -36.70086188 </i>
    <i name="e_0_energy">    -36.71732500 </i>
   </energy>
  </scstep>
  <scstep>
   <time name="dav">    0.40    0.40</time>
   <time name="total">    0.48    0.49</time>
   <energy>
    <i name="e_fr_energy">    -36.75912773 </i>
    <i name="e_wo_entrp">    -36.74318658 </i>
    <i name="e_0_energy">    -36.75381401 </i>
   </energy>
  </scstep>
  <scstep>
   <time name="dav">    0.42    0.42</time>
   <time name="total">    0.51    0.51</time>
   <energy>
    <i name="e_fr_energy">    -36.75313247 </i>
    <i name="e_wo_entrp">    -36.72774754 </i>
    <i name="e_0_energy">    -36.74467083 </i>
   </energy>
  </scstep>
  <scstep>
   <time name="dav">    0.38    0.38</time>
   <time name="total">    0.46    0.46</time>
   <energy>
    <i name="e_fr_energy">    -36.75139778 </i>
    <i name="e_wo_entrp">    -36.73028543 </i>
    <i name="e_0_energy">    -36.74436033 </i>
   </energy>
  </scstep>
  <scstep>
   <time name="dav">    0.38    0.38</time>
   <time name="total">    0.46    0.47</time>
   <energy>
    <i name="e_fr_energy">    -36.75107535 </i>
    <i name="e_wo_entrp">    -36.72782249 </i>
    <i name="e_0_energy">    -36.74332440 </i>
   </energy>
  </scstep>
  <scstep>
   <time name="dav">    0.32    0.32</time>
   <time name="total">    0.40    0.41</time>
   <energy>
    <i name="e_fr_energy">    -36.75109868 </i>
    <i name="e_wo_entrp">    -36.72925635 </i>
    <i name="e_0_energy">    -36.74381790 </i>
   </energy>
  </scstep>
  <scstep>
   <time name="dav">    0.26    0.26</time>
   <time name="total">    0.35    0.35</time>
   <energy>
    <i name="e_fr_energy">    -36.75085658 </i>
    <i name="e_wo_entrp">    -36.72836457 </i>
    <i name="e_0_energy">    -36.74335924 </i>
   </energy>
  </scstep>
  <scstep>
   <time name="dav">    0.20    0.20</time>
   <time name="total">    0.23    0.23</time>
   <energy>
    <i name="alphaZ">    285.34744303 </i>
    <i name="ewald">  54451.03586736 </i>
    <i name="hartreedc"> -65413.61210035 </i>
    <i name="XCdc">    363.38780044 </i>
    <i name="pawpsdc">  10646.29399687 </i>
    <i name="pawaedc"> -11509.73177071 </i>
    <i name="eentropy">     -0.02234328 </i>
    <i name="bandstr">    -12.06815750 </i>
    <i name="atom">  11152.61838693 </i>
    <i name="e_fr_energy">    -36.75087720 </i>
    <i name="e_wo_entrp">    -36.72853392 </i>
    <i name="e_0_energy">    -36.74342944 </i>
   </energy>
  </scstep>
  <structure>
   <crystal>
    <varray name="basis" >
     <v>       2.56679773       0.00000000       0.00000000 </v>
     <v>       1.28339887       2.22291204       0.00000000 </v>
     <v>       0.00000000       0.00000000      29.67047119 </v>
    </varray>
    <i name="volume">    169.29275369 </i>
    <varray name="rec_basis" >
     <v>       0.38959050      -0.22493018       0.00000000 </v>
     <v>       0.00000000       0.44986035       0.00000000 </v>
     <v>       0.00000000       0.00000000       0.03370354 </v>
    </varray>
   </crystal>
   <varray name="positions" >
    <v>       0.00015049      -0.00030097       0.00347042 </v>
    <v>       0.33311780       0.33376441       0.06820601 </v>
    <v>       0.66690322       0.66619355       0.13880824 </v>
    <v>      -0.00035636       0.00071272       0.20811519 </v>
    <v>       0.33381444       0.33237112       0.27628362 </v>
    <v>       0.66607629       0.66784741       0.34497973 </v>
    <v>       0.00011248      -0.00022496       0.41155128 </v>
    <v>       0.32507490       0.34985019       0.47362531 </v>
    <v>       0.84020383       0.31959234       0.53988773 </v>
    <v>       0.66710499       0.66579002       0.53899875 </v>
   </varray>
  </structure>
  <varray name="forces" >
   <v>       0.00000000       0.00186786      -0.45616103 </v>
   <v>      -0.00000000      -0.00247075       0.76213646 </v>
   <v>       0.00000000       0.00363282      -0.20765457 </v>
   <v>      -0.00000000      -0.00348210      -0.07023586 </v>
   <v>       0.00000000       0.00736833      -0.05493058 </v>
   <v>      -0.00000000      -0.00653232      -0.31714978 </v>
   <v>       0.00000000       0.08104337      -0.88272525 </v>
   <v>      -0.00000000      -0.01166818       0.45715386 </v>
   <v>       0.00000000       0.17318116       0.40196328 </v>
   <v>      -0.00000000      -0.24294018       0.36760347 </v>
  </varray>
  <varray name="stress" >
   <v>     -33.81085004      -0.00000000      -0.00000000 </v>
   <v>      -0.00000000     -32.72540065      -2.63239358 </v>
   <v>      -0.00000000      -2.63238952      33.47603536 </v>
  </varray>
  <energy>
   <i name="e_fr_energy">    -40.47810880 </i>
   <i name="e_wo_entrp">    -40.45576552 </i>
   <i name="e_0_energy">    -40.47066104 </i>
  </energy>
  <time name="totalsc">    3.73    3.86</time>
 </calculation>
 <calculation>
  <scstep>
   <time name="dav">    0.28    0.29</time>
   <time name="total">    0.37    0.37</time>
   <energy>
    <i name="alphaZ">    285.34744303 </i>
    <i name="ewald">  54966.23213634 </i>
    <i name="hartreedc"> -65928.88214283 </i>
    <i name="XCdc">    363.38560993 </i>
    <i name="pawpsdc">  10646.22374564 </i>
    <i name="pawaedc"> -11509.65793743 </i>
    <i name="eentropy">     -0.02271538 </i>
    <i name="bandstr">    -11.98376630 </i>
    <i name="atom">  11152.61838693 </i>
    <i name="e_fr_energy">    -36.73924007 </i>
    <i name="e_wo_entrp">    -36.71652469 </i>
    <i name="e_0_energy">    -36.73166828 </i>
   </energy>
  </scstep>
  <scstep>
   <time name="dav">    0.36    0.37</time>
   <time name="total">    0.44    0.45</time>
   <energy>
    <i name="e_fr_energy">    -36.83365736 </i>
    <i name="e_wo_entrp">    -36.81352505 </i>
    <i name="e_0_energy">    -36.82694659 </i>
   </energy>
  </scstep>
  <scstep>
   <time name="dav">    0.34    0.34</time>
   <time name="total">    0.42    0.43</time>
   <energy>
    <i name="e_fr_energy">    -36.83309163 </i>
    <i name="e_wo_entrp">    -36.81142598 </i>
    <i name="e_0_energy">    -36.82586975 </i>
   </energy>
  </scstep>
  <scstep>
   <time name="dav">    0.32    0.32</time>
   <time name="total">    0.40    0.40</time>
   <energy>
    <i name="e_fr_energy">    -36.83229231 </i>
    <i name="e_wo_entrp">    -36.80708392 </i>
    <i name="e_0_energy">    -36.82388951 </i>
   </energy>
  </scstep>
  <scstep>
   <time name="dav">    0.43    0.44</time>
   <time name="total">    0.52    0.52</time>
   <energy>
    <i name="e_fr_energy">    -36.83876652 </i>
    <i name="e_wo_entrp">    -36.82308563 </i>
    <i name="e_0_energy">    -36.83353956 </i>
   </energy>
  </scstep>
  <scstep>
   <time name="dav">    0.41    0.42</time>
   <time name="total">    0.49    0.50</time>
   <energy>
    <i name="e_fr_energy">    -36.82935984 </i>
    <i name="e_wo_entrp">    -36.80593072 </i>
    <i name="e_0_energy">    -36.82155014 </i>
   </energy>
  </scstep>
  <scstep>
   <time name="dav">    0.42    0.42</time>
   <time name="total">    0.50    0.50</time>
   <energy>
    <i name="e_fr_energy">    -36.82897822 </i>
    <i name="e_wo_entrp">    -36.80764016 </i>
    <i name="e_0_energy">    -36.82186553 </i>
   </energy>
  </scstep>
  <scstep>
   <time name="dav">    0.31    0.31</time>
   <time name="total">    0.33    0.34</time>
   <energy>
    <i name="alphaZ">    285.34744303 </i>
    <i name="ewald">  54966.23213634 </i>
    <i name="hartreedc"> -65924.33470503 </i>
    <i name="XCdc">    363.43988372 </i>
    <i name="pawpsdc">  10646.83152570 </i>
    <i name="pawaedc"> -11510.23929944 </i>
    <i name="eentropy">     -0.02191176 </i>
    <i name="bandstr">    -16.70249454 </i>
    <i name="atom">  11152.61838693 </i>
    <i name="e_fr_energy">    -36.82903503 </i>
    <i name="e_wo_entrp">    -36.80712328 </i>
    <i name="e_0_energy">    -36.82173111 </i>
   </energy>
  </scstep>
  <structure>
   <crystal>
    <varray name="basis" >
     <v>       2.56679773       0.00000000       0.00000000 </v>
     <v>       1.28339887       2.22291204       0.00000000 </v>
     <v>       0.00000000       0.00000000      29.67047119 </v>
    </varray>
    <i name="volume">    169.29275369 </i>
    <varray name="rec_basis" >
     <v>       0.38959050      -0.22493018       0.00000000 </v>
     <v>       0.00000000       0.44986035       0.00000000 </v>
     <v>       0.00000000       0.00000000       0.03370354 </v>
    </varray>
   </crystal>
   <varray name="positions" >
    <v>       0.00015985      -0.00031969       0.00329657 </v>
    <v>       0.33310350       0.33379299       0.06931828 </v>
    <v>       0.66690600       0.66618799       0.13827417 </v>
    <v>      -0.00038858       0.00077717       0.20794951 </v>
    <v>       0.33381997       0.33236005       0.27609518 </v>
    <v>       0.66603419       0.66793162       0.34413975 </v>
    <v>      -0.00105813       0.00211626       0.40898472 </v>
    <v>       0.32329279       0.35341442       0.47282037 </v>
    <v>       0.83654338       0.32691323       0.54211098 </v>
    <v>       0.67378911       0.65242178       0.54093675 </v>
   </varray>
  </structure>
  <varray name="forces" >
   <v>       0.00000000       0.00120080      -0.20286027 </v>
   <v>      -0.00000000      -0.00301506       0.31866796 </v>
   <v>       0.00000000       0.00421220       0.03533469 </v>
   <v>      -0.00000000      -0.00490222      -0.11712695 </v>
   <v>       0.00000000       0.00880889      -0.15927925 </v>
   <v>      -0.00000000      -0.00070149      -0.53200920 </v>
   <v>       0.00000000       0.06487992      -0.10912186 </v>
   <v>      -0.00000000      -0.01651707       0.09598293 </v>
   <v>      -0.00000000      -1.21412149       0.41795858 </v>
   <v>       0.00000000       1.16015553       0.25245338 </v>
  </varray>
  <varray name="stress" >
   <v>     -37.03646812      -0.00000000      -0.00000000 </v>
   <v>      -0.00000000     -26.88753279      -2.84622156 </v>
   <v>      -0.00000000      -2.84621836      30.09850799 </v>
  </varray>
  <energy>
   <i name="e_fr_energy">    -40.56858437 </i>
   <i name="e_wo_entrp">    -40.54667262 </i>
   <i name="e_0_energy">    -40.56128045 </i>
  </energy>
  <time name="totalsc">    3.95    4.06</time>
 </calculation>
 <calculation>
  <scstep>
   <time name="dav">    0.28    0.28</time>
   <time name="total">    0.36    0.36</time>
   <energy>
    <i name="alphaZ">    285.34744303 </i>
    <i name="ewald">  55030.89475296 </i>
    <i name="hartreedc"> -65989.14744491 </i>
    <i name="XCdc">    363.43803524 </i>
    <i name="pawpsdc">  10646.83483029 </i>
    <i name="pawaedc"> -11510.22303185 </i>
    <i name="eentropy">     -0.02185538 </i>
    <i name="bandstr">    -16.56856977 </i>
    <i name="atom">  11152.61838693 </i>
    <i name="e_fr_energy">    -36.82745345 </i>
    <i name="e_wo_entrp">    -36.80559807 </i>
    <i name="e_0_energy">    -36.82016832 </i>
   </energy>
  </scstep>
  <scstep>
   <time name="dav">    0.37    0.37</time>
   <time name="total">    0.45    0.45</time>
   <energy>
    <i name="e_fr_energy">    -36.82882388 </i>
    <i name="e_wo_entrp">    -36.80699550 </i>
    <i name="e_0_energy">    -36.82154775 </i>
   </energy>
  </scstep>
  <scstep>
   <time name="dav">    0.30    0.31</time>
   <time name="total">    0.39    0.39</time>
   <energy>
    <i name="e_fr_energy">    -36.82890953 </i>
    <i name="e_wo_entrp">    -36.80776003 </i>
    <i name="e_0_energy">    -36.82185970 </i>
   </energy>
  </scstep>
  <scstep>
   <time name="dav">    0.23    0.23</time>
   <time name="total">    0.31    0.31</time>
   <energy>
    <i name="e_fr_energy">    -36.82886447 </i>
    <i name="e_wo_entrp">    -36.80609368 </i>
    <i name="e_0_energy">    -36.82127421 </i>
   </energy>
  </scstep>
  <scstep>
   <time name="dav">    0.21    0.21</time>
   <time name="total">    0.24    0.24</time>
   <energy>
    <i name="alphaZ">    285.34744303 </i>
    <i name="ewald">  55030.89475296 </i>
    <i name="hartreedc"> -65988.59183026 </i>
    <i name="XCdc">    363.44356241 </i>
    <i name="pawpsdc">  10646.97209549 </i>
    <i name="pawaedc"> -11510.32624907 </i>
    <i name="eentropy">     -0.02108849 </i>
    <i name="bandstr">    -17.16590013 </i>
    <i name="atom">  11152.61838693 </i>
    <i name="e_fr_energy">    -36.82882712 </i>
    <i name="e_wo_entrp">    -36.80773864 </i>
    <i name="e_0_energy">    -36.82179763 </i>
   </energy>
  </scstep>
  <structure>
   <crystal>
    <varray name="basis" >
     <v>       2.56679773       0.00000000       0.00000000 </v>
     <v>       1.28339887       2.22291204       0.00000000 </v>
     <v>       0.00000000       0.00000000      29.67047119 </v>
    </varray>
    <i name="volume">    169.29275369 </i>
    <varray name="rec_basis" >
     <v>       0.38959050      -0.22493018       0.00000000 </v>
     <v>       0.00000000       0.44986035       0.00000000 </v>
     <v>       0.00000000       0.00000000       0.03370354 </v>
    </varray>
   </crystal>
   <varray name="positions" >
    <v>       0.00016101      -0.00032202       0.00327493 </v>
    <v>       0.33310173       0.33379655       0.06945675 </v>
    <v>       0.66690635       0.66618730       0.13820768 </v>
    <v>      -0.00039260       0.00078519       0.20792888 </v>
    <v>       0.33382066       0.33235868       0.27607172 </v>
    <v>       0.66602895       0.66794210       0.34403518 </v>
    <v>      -0.00120386       0.00240772       0.40866521 </v>
    <v>       0.32307093       0.35385813       0.47272016 </v>
    <v>       0.83608769       0.32782462       0.54238775 </v>
    <v>       0.67462122       0.65075755       0.54117801 </v>
   </varray>
  </structure>
  <varray name="forces" >
   <v>       0.00000000       0.00132542      -0.16310391 </v>
   <v>      -0.00000000      -0.00297143       0.24411259 </v>
   <v>       0.00000000       0.00449953       0.06799224 </v>
   <v>      -0.00000000      -0.00477666      -0.12850070 </v>
   <v>       0.00000000       0.00891855      -0.17672498 </v>
   <v>      -0.00000000      -0.00018964      -0.56309963 </v>
   <v>       0.00000000       0.06424314      -0.00680149 </v>
   <v>      -0.00000000      -0.01674776       0.05626468 </v>
   <v>      -0.00000000      -1.41953849       0.43050330 </v>
   <v>       0.00000000       1.36523735       0.23935791 </v>
  </varray>
  <varray name="stress" >
   <v>     -31.00207365      -0.00000000      -0.00000000 </v>
   <v>      -0.00000000     -19.64732443      -2.90082318 </v>
   <v>      -0.00000000      -2.90081886      36.34763812 </v>
  </varray>
  <energy>
   <i name="e_fr_energy">    -40.57014561 </i>
   <i name="e_wo_entrp">    -40.54905712 </i>
   <i name="e_0_energy">    -40.56311611 </i>
  </energy>
  <time name="totalsc">    2.21    2.28</time>
 </calculation>
 <calculation>
  <scstep>
   <time name="dav">    0.28    0.28</time>
   <time name="total">    0.36    0.36</time>
   <energy>
    <i name="alphaZ">    285.34744303 </i>
    <i name="ewald">  55256.68530961 </i>
    <i name="hartreedc"> -66215.55028273 </i>
    <i name="XCdc">    363.40876358 </i>
    <i name="pawpsdc">  10647.14372268 </i>
    <i name="pawaedc"> -11510.49657405 </i>
    <i name="eentropy">     -0.02285431 </i>
    <i name="bandstr">    -15.98910815 </i>
    <i name="atom">  11152.61838693 </i>
    <i name="e_fr_energy">    -36.85519340 </i>
    <i name="e_wo_entrp">    -36.83233909 </i>
    <i name="e_0_energy">    -36.84757530 </i>
   </energy>
  </scstep>
  <scstep>
   <time name="dav">    0.37    0.37</time>
   <time name="total">    0.45    0.45</time>
   <energy>
    <i name="e_fr_energy">    -36.87498769 </i>
    <i name="e_wo_entrp">    -36.85691788 </i>
    <i name="e_0_energy">    -36.86896442 </i>
   </energy>
  </scstep>
  <scstep>
   <time name="dav">    0.34    0.34</time>
   <time name="total">    0.42    0.43</time>
   <energy>
    <i name="e_fr_energy">    -36.87692972 </i>
    <i name="e_wo_entrp">    -36.84948412 </i>
    <i name="e_0_energy">    -36.86778119 </i>
   </energy>
  </scstep>
  <scstep>
   <time name="dav">    0.35    0.35</time>
   <time name="total">    0.43    0.43</time>
   <energy>
    <i name="e_fr_energy">    -36.87352406 </i>
    <i name="e_wo_entrp">    -36.85352365 </i>
    <i name="e_0_energy">    -36.86685725 </i>
   </energy>
  </scstep>
  <scstep>
   <time name="dav">    0.41    0.41</time>
   <time name="total">    0.49    0.50</time>
   <energy>
    <i name="e_fr_energy">    -36.87315609 </i>
    <i name="e_wo_entrp">    -36.85153565 </i>
    <i name="e_0_energy">    -36.86594928 </i>
   </energy>
  </scstep>
  <scstep>
   <time name="dav">    0.34    0.34</time>
   <time name="total">    0.42    0.42</time>
   <energy>
    <i name="e_fr_energy">    -36.87295553 </i>
    <i name="e_wo_entrp">    -36.85045395 </i>
    <i name="e_0_energy">    -36.86545500 </i>
   </energy>
  </scstep>
  <scstep>
   <time name="dav">    0.25    0.25</time>
   <time name="total">    0.27    0.28</time>
   <energy>
    <i name="alphaZ">    285.34744303 </i>
    <i name="ewald">  55256.68530961 </i>
    <i name="hartreedc"> -66213.66875853 </i>
    <i name="XCdc">    363.38419355 </i>
    <i name="pawpsdc">  10644.92370149 </i>
    <i name="pawaedc"> -11508.26493259 </i>
    <i name="eentropy">     -0.02177371 </i>
    <i name="bandstr">    -17.87642912 </i>
    <i name="atom">  11152.61838693 </i>
    <i name="e_fr_energy">    -36.87285934 </i>
    <i name="e_wo_entrp">    -36.85108563 </i>
    <i name="e_0_energy">    -36.86560143 </i>
   </energy>
  </scstep>
  <structure>
   <crystal>
    <varray name="basis" >
     <v>       2.56679773       0.00000000       0.00000000 </v>
     <v>       1.28339887       2.22291204       0.00000000 </v>
     <v>       0.00000000       0.00000000      29.67047119 </v>
    </varray>
    <i name="volume">    169.29275369 </i>
    <varray name="rec_basis" >
     <v>       0.38959050      -0.22493018       0.00000000 </v>
     <v>       0.00000000       0.44986035       0.00000000 </v>
     <v>       0.00000000       0.00000000       0.03370354 </v>
    </varray>
   </crystal>
   <varray name="positions" >
    <v>       0.00016070      -0.00032141       0.00312690 </v>
    <v>       0.33310517       0.33378967       0.07002837 </v>
    <v>       0.66689339       0.66621322       0.13802019 </v>
    <v>      -0.00039086       0.00078173       0.20780047 </v>
    <v>       0.33379498       0.33241004       0.27591130 </v>
    <v>       0.66601224       0.66797551       0.34342562 </v>
    <v>      -0.00188616       0.00377232       0.40760754 </v>
    <v>       0.32239124       0.35521752       0.47241588 </v>
    <v>       0.83903298       0.32193405       0.54350336 </v>
    <v>       0.67308841       0.65382318       0.54208665 </v>
   </varray>
  </structure>
  <varray name="forces" >
   <v>       0.00000000       0.00171403      -0.05060533 </v>
   <v>      -0.00000000      -0.00389575       0.02784590 </v>
   <v>       0.00000000       0.00428734       0.18097530 </v>
   <v>      -0.00000000      -0.00494647      -0.13387402 </v>
   <v>       0.00000000       0.00947638      -0.24295255 </v>
   <v>       0.00000000       0.00483377      -0.58068677 </v>
   <v>       0.00000000       0.05372345       0.24452520 </v>
   <v>      -0.00000000      -0.01759731      -0.04143802 </v>
   <v>      -0.00000000      -0.65528968       0.36293806 </v>
   <v>       0.00000000       0.60769424       0.23327223 </v>
  </varray>
  <varray name="stress" >
   <v>     -35.04684550      -0.00000000      -0.00000000 </v>
   <v>      -0.00000000     -29.07329151      -2.60884446 </v>
   <v>      -0.00000000      -2.60884045      30.82161229 </v>
  </varray>
  <energy>
   <i name="e_fr_energy">    -40.62095899 </i>
   <i name="e_wo_entrp">    -40.59918528 </i>
   <i name="e_0_energy">    -40.61370109 </i>
  </energy>
  <time name="totalsc">    3.31    3.37</time>
 </calculation>
 <calculation>
  <scstep>
   <time name="dav">    0.30    0.30</time>
   <time name="total">    0.38    0.38</time>
   <energy>
    <i name="alphaZ">    285.34744303 </i>
    <i name="ewald">  55539.23100119 </i>
    <i name="hartreedc"> -66496.75857054 </i>
    <i name="XCdc">    363.34787590 </i>
    <i name="pawpsdc">  10644.97718035 </i>
    <i name="pawaedc"> -11508.31899779 </i>
    <i name="eentropy">     -0.02254375 </i>
    <i name="bandstr">    -17.28176207 </i>
    <i name="atom">  11152.61838693 </i>
    <i name="e_fr_energy">    -36.85998675 </i>
    <i name="e_wo_entrp">    -36.83744300 </i>
    <i name="e_0_energy">    -36.85247217 </i>
   </energy>
  </scstep>
  <scstep>
   <time name="dav">    0.36    0.36</time>
   <time name="total">    0.45    0.45</time>
   <energy>
    <i name="e_fr_energy">    -36.89097323 </i>
    <i name="e_wo_entrp">    -36.87288492 </i>
    <i name="e_0_energy">    -36.88494379 </i>
   </energy>
  </scstep>
  <scstep>
   <time name="dav">    0.30    0.30</time>
   <time name="total">    0.38    0.39</time>
   <energy>
    <i name="e_fr_energy">    -36.89318916 </i>
    <i name="e_wo_entrp">    -36.86579185 </i>
    <i name="e_0_energy">    -36.88405672 </i>
   </energy>
  </scstep>
  <scstep>
   <time name="dav">    0.34    0.35</time>
   <time name="total">    0.43    0.43</time>
   <energy>
    <i name="e_fr_energy">    -36.88981921 </i>
    <i name="e_wo_entrp">    -36.87081926 </i>
    <i name="e_0_energy">    -36.88348589 </i>
   </energy>
  </scstep>
  <scstep>
   <time name="dav">    0.44    0.44</time>
   <time name="total">    0.52    0.52</time>
   <energy>
    <i name="e_fr_energy">    -36.88875689 </i>
    <i name="e_wo_entrp">    -36.86714711 </i>
    <i name="e_0_energy">    -36.88155363 </i>
   </energy>
  </scstep>
  <scstep>
   <time name="dav">    0.38    0.39</time>
   <time name="total">    0.47    0.47</time>
   <energy>
    <i name="e_fr_energy">    -36.88868651 </i>
    <i name="e_wo_entrp">    -36.86638309 </i>
    <i name="e_0_energy">    -36.88125204 </i>
   </energy>
  </scstep>
  <scstep>
   <time name="dav">    0.27    0.27</time>
   <time name="total">    0.35    0.35</time>
   <energy>
    <i name="e_fr_energy">    -36.88849243 </i>
    <i name="e_wo_entrp">    -36.86707075 </i>
    <i name="e_0_energy">    -36.88135187 </i>
   </energy>
  </scstep>
  <scstep>
   <time name="dav">    0.25    0.25</time>
   <time name="total">    0.27    0.28</time>
   <energy>
    <i name="alphaZ">    285.34744303 </i>
    <i name="ewald">  55539.23100119 </i>
    <i name="hartreedc"> -66494.26541154 </i>
    <i name="XCdc">    363.31854267 </i>
    <i name="pawpsdc">  10643.71693036 </i>
    <i name="pawaedc"> -11507.07406662 </i>
    <i name="eentropy">     -0.02130916 </i>
    <i name="bandstr">    -19.76006675 </i>
    <i name="atom">  11152.61838693 </i>
    <i name="e_fr_energy">    -36.88854989 </i>
    <i name="e_wo_entrp">    -36.86724073 </i>
    <i name="e_0_energy">    -36.88144684 </i>
   </energy>
  </scstep>
  <structure>
   <crystal>
    <varray name="basis" >
     <v>       2.56679773       0.00000000       0.00000000 </v>
     <v>       1.28339887       2.22291204       0.00000000 </v>
     <v>       0.00000000       0.00000000      29.67047119 </v>
    </varray>
    <i name="volume">    169.29275369 </i>
    <varray name="rec_basis" >
     <v>       0.38959050      -0.22493018       0.00000000 </v>
     <v>       0.00000000       0.44986035       0.00000000 </v>
     <v>       0.00000000       0.00000000       0.03370354 </v>
    </varray>
   </crystal>
   <varray name="positions" >
    <v>       0.00016032      -0.00032064       0.00294310 </v>
    <v>       0.33310944       0.33378112       0.07073813 </v>
    <v>       0.66687730       0.66624541       0.13778739 </v>
    <v>      -0.00038872       0.00077743       0.20764102 </v>
    <v>       0.33376309       0.33247381       0.27571212 </v>
    <v>       0.66599150       0.66801700       0.34266876 </v>
    <v>      -0.00273335       0.00546669       0.40629427 </v>
    <v>       0.32154729       0.35690541       0.47203806 </v>
    <v>       0.84269003       0.31461994       0.54488857 </v>
    <v>       0.67118518       0.65762965       0.54321488 </v>
   </varray>
  </structure>
  <varray name="forces" >
   <v>       0.00000000       0.00083077       0.08559236 </v>
   <v>      -0.00000000      -0.00379472      -0.24263690 </v>
   <v>       0.00000000       0.00426838       0.32041410 </v>
   <v>      -0.00000000      -0.00530184      -0.15212666 </v>
   <v>       0.00000000       0.01015416      -0.32374595 </v>
   <v>       0.00000000       0.01029740      -0.60578437 </v>
   <v>       0.00000000       0.04121366       0.55502336 </v>
   <v>      -0.00000000      -0.01496680      -0.15670278 </v>
   <v>       0.00000000       0.12898864       0.28298498 </v>
   <v>      -0.00000000      -0.17168965       0.23698187 </v>
  </varray>
  <varray name="stress" >
   <v>     -34.48414850      -0.00000000      -0.00000000 </v>
   <v>      -0.00000000     -34.41669330      -2.21958986 </v>
   <v>      -0.00000000      -2.21958599      30.85220853 </v>
  </varray>
  <energy>
   <i name="e_fr_energy">    -40.64611317 </i>
   <i name="e_wo_entrp">    -40.62480400 </i>
   <i name="e_0_energy">    -40.63901011 </i>
  </energy>
  <time name="totalsc">    3.72    3.80</time>
 </calculation>
 <calculation>
  <scstep>
   <time name="dav">    0.28    0.28</time>
   <time name="total">    0.36    0.37</time>
   <energy>
    <i name="alphaZ">    285.34744303 </i>
    <i name="ewald">  55572.85246396 </i>
    <i name="hartreedc"> -66528.04100932 </i>
    <i name="XCdc">    363.31485631 </i>
    <i name="pawpsdc">  10643.79625908 </i>
    <i name="pawaedc"> -11507.15310132 </i>
    <i name="eentropy">     -0.02147465 </i>
    <i name="bandstr">    -19.60112694 </i>
    <i name="atom">  11152.61838693 </i>
    <i name="e_fr_energy">    -36.88730292 </i>
    <i name="e_wo_entrp">    -36.86582827 </i>
    <i name="e_0_energy">    -36.88014470 </i>
   </energy>
  </scstep>
  <scstep>
   <time name="dav">    0.35    0.36</time>
   <time name="total">    0.44    0.44</time>
   <energy>
    <i name="e_fr_energy">    -36.88770118 </i>
[...]
       <r>    11.1598     0.5204    57.6840 </r>
       <r>    11.2495    -0.1526    57.6703 </r>
       <r>    11.3393     0.0837    57.6779 </r>
       <r>    11.4290     0.8478    57.7539 </r>
       <r>    11.5188     1.9289    57.9271 </r>
       <r>    11.6085     2.9587    58.1926 </r>
       <r>    11.6983     3.3287    58.4914 </r>
       <r>    11.7880     2.8304    58.7454 </r>
       <r>    11.8778     1.9267    58.9183 </r>
       <r>    11.9675     1.5540    59.0578 </r>
       <r>    12.0573     2.1771    59.2532 </r>
       <r>    12.1470     2.6132    59.4878 </r>
       <r>    12.2368     1.7618    59.6459 </r>
       <r>    12.3265     0.4923    59.6901 </r>
       <r>    12.4163    -0.0952    59.6815 </r>
       <r>    12.5061    -0.1178    59.6710 </r>
       <r>    12.5958    -0.0398    59.6674 </r>
       <r>    12.6856    -0.0074    59.6667 </r>
       <r>    12.7753    -0.0024    59.6665 </r>
       <r>    12.8651    -0.0087    59.6657 </r>
       <r>    12.9548    -0.0266    59.6633 </r>
       <r>    13.0446    -0.0289    59.6608 </r>
       <r>    13.1343     0.0855    59.6684 </r>
       <r>    13.2241     0.3951    59.7039 </r>
       <r>    13.3138     0.7334    59.7697 </r>
       <r>    13.4036     0.7765    59.8394 </r>
       <r>    13.4933     0.4778    59.8823 </r>
       <r>    13.5831     0.1371    59.8946 </r>
       <r>    13.6728    -0.0185    59.8929 </r>
       <r>    13.7626    -0.0307    59.8902 </r>
       <r>    13.8524    -0.0117    59.8891 </r>
       <r>    13.9421    -0.0024    59.8889 </r>
       <r>    14.0319    -0.0003    59.8889 </r>
       <r>    14.1216    -0.0000    59.8889 </r>
       <r>    14.2114    -0.0000    59.8889 </r>
       <r>    14.3011    -0.0000    59.8889 </r>
       <r>    14.3909    -0.0000    59.8889 </r>
       <r>    14.4806    -0.0000    59.8889 </r>
       <r>    14.5704    -0.0000    59.8889 </r>
       <r>    14.6601    -0.0000    59.8889 </r>
       <r>    14.7499    -0.0000    59.8889 </r>
       <r>    14.8396    -0.0000    59.8889 </r>
       <r>    14.9294    -0.0000    59.8889 </r>
       <r>    15.0191    -0.0000    59.8889 </r>
       <r>    15.1089    -0.0000    59.8889 </r>
       <r>    15.1987    -0.0000    59.8889 </r>
       <r>    15.2884    -0.0000    59.8889 </r>
       <r>    15.3782    -0.0000    59.8889 </r>
       <r>    15.4679    -0.0000    59.8889 </r>
       <r>    15.5577    -0.0001    59.8889 </r>
       <r>    15.6474    -0.0010    59.8888 </r>
       <r>    15.7372    -0.0056    59.8883 </r>
       <r>    15.8269    -0.0181    59.8867 </r>
       <r>    15.9167    -0.0192    59.8849 </r>
       <r>    16.0064     0.0661    59.8909 </r>
       <r>    16.0962     0.2784    59.9159 </r>
       <r>    16.1859     0.4504    59.9563 </r>
       <r>    16.2757     0.3742    59.9899 </r>
       <r>    16.3655     0.1468    60.0031 </r>
       <r>    16.4552     0.0016    60.0032 </r>
       <r>    16.5450    -0.0231    60.0011 </r>
       <r>    16.6347    -0.0101    60.0002 </r>
       <r>    16.7245    -0.0022    60.0000 </r>
       <r>    16.8142    -0.0003    60.0000 </r>
       <r>    16.9040    -0.0000    60.0000 </r>
       <r>    16.9937    -0.0000    60.0000 </r>
       <r>    17.0835    -0.0000    60.0000 </r>
       <r>    17.1732    -0.0000    60.0000 </r>
       <r>    17.2630    -0.0000    60.0000 </r>
       <r>    17.3527    -0.0000    60.0000 </r>
       <r>    17.4425    -0.0000    60.0000 </r>
       <r>    17.5322     0.0000    60.0000 </r>
       <r>    17.6220     0.0000    60.0000 </r>
       <r>    17.7118     0.0000    60.0000 </r>
       <r>    17.8015     0.0000    60.0000 </r>
       <r>    17.8913     0.0000    60.0000 </r>
       <r>    17.9810     0.0000    60.0000 </r>
       <r>    18.0708     0.0000    60.0000 </r>
       <r>    18.1605     0.0000    60.0000 </r>
      </set>
      <set comment="spin 2">
       <r>    -8.7655     0.0000     0.0000 </r>
       <r>    -8.6758     0.0000     0.0000 </r>
       <r>    -8.5860     0.0000     0.0000 </r>
       <r>    -8.4962     0.0000     0.0000 </r>
       <r>    -8.4065    -0.0000    -0.0000 </r>
       <r>    -8.3167    -0.0000    -0.0000 </r>
       <r>    -8.2270    -0.0000    -0.0000 </r>
       <r>    -8.1372    -0.0000    -0.0000 </r>
       <r>    -8.0475    -0.0000    -0.0000 </r>
       <r>    -7.9577    -0.0000    -0.0000 </r>
       <r>    -7.8680    -0.0000    -0.0000 </r>
       <r>    -7.7782    -0.0000    -0.0000 </r>
       <r>    -7.6885    -0.0000    -0.0000 </r>
       <r>    -7.5987    -0.0000    -0.0000 </r>
       <r>    -7.5090    -0.0000    -0.0000 </r>
       <r>    -7.4192    -0.0000    -0.0000 </r>
       <r>    -7.3295    -0.0003    -0.0000 </r>
       <r>    -7.2397    -0.0022    -0.0002 </r>
       <r>    -7.1499    -0.0101    -0.0011 </r>
       <r>    -7.0602    -0.0231    -0.0032 </r>
       <r>    -6.9704     0.0015    -0.0031 </r>
       <r>    -6.8807     0.1457     0.0100 </r>
       <r>    -6.7909     0.3680     0.0430 </r>
       <r>    -6.7012     0.4314     0.0818 </r>
       <r>    -6.6114     0.2612     0.1052 </r>
       <r>    -6.5217     0.1430     0.1180 </r>
       <r>    -6.4319     0.2719     0.1424 </r>
       <r>    -6.3422     0.4211     0.1802 </r>
       <r>    -6.2524     0.3315     0.2100 </r>
       <r>    -6.1627     0.1675     0.2250 </r>
       <r>    -6.0729     0.2227     0.2450 </r>
       <r>    -5.9832     0.3976     0.2807 </r>
       <r>    -5.8934     0.3780     0.3146 </r>
       <r>    -5.8036     0.1998     0.3326 </r>
       <r>    -5.7139     0.1852     0.3492 </r>
       <r>    -5.6241     0.3666     0.3821 </r>
       <r>    -5.5344     0.4311     0.4208 </r>
       <r>    -5.4446     0.2546     0.4436 </r>
       <r>    -5.3549     0.0526     0.4484 </r>
       <r>    -5.2651    -0.0223     0.4464 </r>
       <r>    -5.1754    -0.0232     0.4443 </r>
       <r>    -5.0856    -0.0242     0.4421 </r>
       <r>    -4.9959    -0.0173     0.4406 </r>
       <r>    -4.9061     0.0806     0.4478 </r>
       <r>    -4.8164     0.2996     0.4747 </r>
       <r>    -4.7266     0.4549     0.5155 </r>
       <r>    -4.6369     0.3561     0.5475 </r>
       <r>    -4.5471     0.1279     0.5589 </r>
       <r>    -4.4573    -0.0069     0.5583 </r>
       <r>    -4.3676    -0.0393     0.5548 </r>
       <r>    -4.2778    -0.0795     0.5477 </r>
       <r>    -4.1881    -0.1455     0.5346 </r>
       <r>    -4.0983     0.0293     0.5372 </r>
       <r>    -4.0086     0.8930     0.6174 </r>
       <r>    -3.9188     2.2690     0.8210 </r>
       <r>    -3.8291     3.2261     1.1106 </r>
       <r>    -3.7393     3.4294     1.4184 </r>
       <r>    -3.6496     3.1667     1.7026 </r>
       <r>    -3.5598     2.5521     1.9317 </r>
       <r>    -3.4701     2.2503     2.1336 </r>
       <r>    -3.3803     2.5292     2.3606 </r>
       <r>    -3.2905     2.1818     2.5565 </r>
       <r>    -3.2008     1.0873     2.6541 </r>
       <r>    -3.1110     0.9839     2.7424 </r>
       <r>    -3.0213     2.2927     2.9481 </r>
       <r>    -2.9315     3.0224     3.2194 </r>
       <r>    -2.8418     1.9293     3.3926 </r>
       <r>    -2.7520     0.5814     3.4448 </r>
       <r>    -2.6623     0.9727     3.5321 </r>
       <r>    -2.5725     2.7715     3.7808 </r>
       <r>    -2.4828     3.7862     4.1206 </r>
       <r>    -2.3930     3.0231     4.3920 </r>
       <r>    -2.3033     2.0326     4.5744 </r>
       <r>    -2.2135     2.1836     4.7704 </r>
       <r>    -2.1238     2.5064     4.9954 </r>
       <r>    -2.0340     1.8770     5.1638 </r>
       <r>    -1.9442     1.3127     5.2816 </r>
       <r>    -1.8545     1.8420     5.4470 </r>
       <r>    -1.7647     3.0672     5.7223 </r>
       <r>    -1.6750     5.4229     6.2090 </r>
       <r>    -1.5852     9.6550     7.0756 </r>
       <r>    -1.4955    13.8989     8.3230 </r>
       <r>    -1.4057    14.8582     9.6566 </r>
       <r>    -1.3160    11.8838    10.7232 </r>
       <r>    -1.2262     8.1598    11.4556 </r>
       <r>    -1.1365     6.4015    12.0301 </r>
       <r>    -1.0467     5.8703    12.5570 </r>
       <r>    -0.9570     5.1870    13.0226 </r>
       <r>    -0.8672     4.9136    13.4636 </r>
       <r>    -0.7775     6.5244    14.0492 </r>
       <r>    -0.6877     9.6220    14.9128 </r>
       <r>    -0.5979    12.3065    16.0173 </r>
       <r>    -0.5082    14.7555    17.3417 </r>
       <r>    -0.4184    17.4337    18.9064 </r>
       <r>    -0.3287    17.7414    20.4988 </r>
       <r>    -0.2389    14.3333    21.7852 </r>
       <r>    -0.1492    10.0939    22.6912 </r>
       <r>    -0.0594     7.9317    23.4031 </r>
       <r>     0.0303     8.3074    24.1487 </r>
       <r>     0.1201    10.4359    25.0854 </r>
       <r>     0.2098    12.9365    26.2465 </r>
       <r>     0.2996    14.6697    27.5631 </r>
       <r>     0.3893    15.1552    28.9233 </r>
       <r>     0.4791    15.2044    30.2880 </r>
       <r>     0.5688    16.8654    31.8017 </r>
       <r>     0.6586    20.2651    33.6206 </r>
       <r>     0.7484    22.6860    35.6567 </r>
       <r>     0.8381    21.6535    37.6002 </r>
       <r>     0.9279    17.6114    39.1809 </r>
       <r>     1.0176    14.0776    40.4444 </r>
       <r>     1.1074    13.5081    41.6568 </r>
       <r>     1.1971    13.4483    42.8638 </r>
       <r>     1.2869    10.6125    43.8163 </r>
       <r>     1.3766     5.8085    44.3377 </r>
       <r>     1.4664     1.8148    44.5005 </r>
       <r>     1.5561    -0.1011    44.4915 </r>
       <r>     1.6459    -0.4988    44.4467 </r>
       <r>     1.7356    -0.2124    44.4276 </r>
       <r>     1.8254     0.7377    44.4938 </r>
       <r>     1.9151     2.2211    44.6932 </r>
       <r>     2.0049     2.9727    44.9600 </r>
       <r>     2.0947     2.1772    45.1554 </r>
       <r>     2.1844     0.8643    45.2330 </r>
       <r>     2.2742     0.2614    45.2564 </r>
       <r>     2.3639     0.3124    45.2845 </r>
       <r>     2.4537     0.3627    45.3170 </r>
       <r>     2.5434     0.1898    45.3341 </r>
       <r>     2.6332    -0.0116    45.3330 </r>
       <r>     2.7229    -0.1388    45.3206 </r>
       <r>     2.8127    -0.1146    45.3103 </r>
       <r>     2.9024     0.4717    45.3526 </r>
       <r>     2.9922     1.7839    45.5127 </r>
       <r>     3.0819     2.7263    45.7574 </r>
       <r>     3.1717     2.1473    45.9502 </r>
       <r>     3.2615     0.7801    46.0202 </r>
       <r>     3.3512    -0.0228    46.0181 </r>
       <r>     3.4410    -0.1343    46.0061 </r>
       <r>     3.5307    -0.0549    46.0012 </r>
       <r>     3.6205    -0.0114    46.0001 </r>
       <r>     3.7102    -0.0015    46.0000 </r>
       <r>     3.8000    -0.0008    45.9999 </r>
       <r>     3.8897    -0.0064    45.9994 </r>
       <r>     3.9795    -0.0365    45.9961 </r>
       <r>     4.0692    -0.1130    45.9859 </r>
       <r>     4.1590    -0.1054    45.9765 </r>
       <r>     4.2487     0.4499    46.0169 </r>
       <r>     4.3385     1.7488    46.1738 </r>
       <r>     4.4282     2.7201    46.4180 </r>
       <r>     4.5180     2.1787    46.6135 </r>
       <r>     4.6078     0.8113    46.6863 </r>
       <r>     4.6975    -0.0131    46.6851 </r>
       <r>     4.7873    -0.1357    46.6730 </r>
       <r>     4.8770    -0.0567    46.6679 </r>
       <r>     4.9668    -0.0119    46.6668 </r>
       <r>     5.0565    -0.0015    46.6667 </r>
       <r>     5.1463    -0.0005    46.6666 </r>
       <r>     5.2360    -0.0044    46.6662 </r>
       <r>     5.3258    -0.0291    46.6636 </r>
       <r>     5.4155    -0.1139    46.6534 </r>
       <r>     5.5053    -0.2236    46.6333 </r>
       <r>     5.5950     0.0372    46.6367 </r>
       <r>     5.6848     1.3851    46.7610 </r>
       <r>     5.7745     3.8705    47.1084 </r>
       <r>     5.8643     6.0265    47.6493 </r>
       <r>     5.9541     5.9314    48.1816 </r>
       <r>     6.0438     3.6495    48.5092 </r>
       <r>     6.1336     1.5433    48.6477 </r>
       <r>     6.2233     1.0855    48.7451 </r>
       <r>     6.3131     1.3249    48.8641 </r>
       <r>     6.4028     1.1343    48.9659 </r>
       <r>     6.4926     0.6845    49.0273 </r>
       <r>     6.5823     0.4287    49.0658 </r>
       <r>     6.6721     0.2523    49.0884 </r>
       <r>     6.7618     0.0686    49.0946 </r>
       <r>     6.8516     0.2653    49.1184 </r>
       <r>     6.9413     1.2449    49.2301 </r>
       <r>     7.0311     2.8141    49.4827 </r>
       <r>     7.1208     3.8708    49.8301 </r>
       <r>     7.2106     3.3294    50.1289 </r>
       <r>     7.3004     1.7123    50.2826 </r>
       <r>     7.3901     0.4385    50.3220 </r>
       <r>     7.4799     0.1675    50.3370 </r>
       <r>     7.5696     0.8884    50.4168 </r>
       <r>     7.6594     2.0016    50.5964 </r>
       <r>     7.7491     2.3667    50.8088 </r>
       <r>     7.8389     1.5765    50.9503 </r>
       <r>     7.9286     0.4617    50.9917 </r>
       <r>     8.0184     0.0725    50.9983 </r>
       <r>     8.1081     0.8580    51.0753 </r>
       <r>     8.1979     2.2263    51.2751 </r>
       <r>     8.2876     2.8410    51.5301 </r>
       <r>     8.3774     2.4592    51.7508 </r>
       <r>     8.4671     2.2716    51.9547 </r>
       <r>     8.5569     2.4721    52.1766 </r>
       <r>     8.6467     2.0109    52.3570 </r>
       <r>     8.7364     0.9579    52.4430 </r>
       <r>     8.8262     0.5375    52.4913 </r>
       <r>     8.9159     1.3615    52.6135 </r>
       <r>     9.0057     2.7329    52.8587 </r>
       <r>     9.0954     3.1865    53.1447 </r>
       <r>     9.1852     2.3307    53.3539 </r>
       <r>     9.2749     1.6455    53.5016 </r>
       <r>     9.3647     2.1435    53.6940 </r>
       <r>     9.4544     2.7794    53.9435 </r>
       <r>     9.5442     2.6041    54.1772 </r>
       <r>     9.6339     2.2833    54.3821 </r>
       <r>     9.7237     2.3079    54.5893 </r>
       <r>     9.8135     2.2575    54.7919 </r>
       <r>     9.9032     2.1572    54.9855 </r>
       <r>     9.9930     2.4183    55.2026 </r>
       <r>    10.0827     2.7708    55.4512 </r>
       <r>    10.1725     2.5787    55.6827 </r>
       <r>    10.2622     1.9554    55.8582 </r>
       <r>    10.3520     1.8712    56.0261 </r>
       <r>    10.4417     2.6843    56.2671 </r>
       <r>    10.5315     3.2522    56.5590 </r>
       <r>    10.6212     2.4720    56.7808 </r>
       <r>    10.7110     1.1127    56.8807 </r>
       <r>    10.8007     0.9960    56.9701 </r>
       <r>    10.8905     2.3100    57.1774 </r>
       <r>    10.9802     3.0658    57.4526 </r>
       <r>    11.0700     2.0583    57.6373 </r>
       <r>    11.1598     0.5205    57.6840 </r>
       <r>    11.2495    -0.1526    57.6703 </r>
       <r>    11.3393     0.0836    57.6779 </r>
       <r>    11.4290     0.8477    57.7539 </r>
       <r>    11.5188     1.9289    57.9271 </r>
       <r>    11.6085     2.9587    58.1926 </r>
       <r>    11.6983     3.3287    58.4914 </r>
       <r>    11.7880     2.8304    58.7454 </r>
       <r>    11.8778     1.9267    58.9183 </r>
       <r>    11.9675     1.5539    59.0578 </r>
       <r>    12.0573     2.1769    59.2532 </r>
       <r>    12.1470     2.6132    59.4877 </r>
       <r>    12.2368     1.7621    59.6459 </r>
       <r>    12.3265     0.4925    59.6901 </r>
       <r>    12.4163    -0.0951    59.6815 </r>
       <r>    12.5061    -0.1178    59.6710 </r>
       <r>    12.5958    -0.0398    59.6674 </r>
       <r>    12.6856    -0.0074    59.6667 </r>
       <r>    12.7753    -0.0024    59.6665 </r>
       <r>    12.8651    -0.0087    59.6657 </r>
       <r>    12.9548    -0.0266    59.6633 </r>
       <r>    13.0446    -0.0289    59.6608 </r>
       <r>    13.1343     0.0854    59.6684 </r>
       <r>    13.2241     0.3951    59.7039 </r>
       <r>    13.3138     0.7334    59.7697 </r>
       <r>    13.4036     0.7766    59.8394 </r>
       <r>    13.4933     0.4778    59.8823 </r>
       <r>    13.5831     0.1371    59.8946 </r>
       <r>    13.6728    -0.0185    59.8929 </r>
       <r>    13.7626    -0.0307    59.8902 </r>
       <r>    13.8524    -0.0117    59.8891 </r>
       <r>    13.9421    -0.0024    59.8889 </r>
       <r>    14.0319    -0.0003    59.8889 </r>
       <r>    14.1216    -0.0000    59.8889 </r>
       <r>    14.2114    -0.0000    59.8889 </r>
       <r>    14.3011    -0.0000    59.8889 </r>
       <r>    14.3909    -0.0000    59.8889 </r>
       <r>    14.4806    -0.0000    59.8889 </r>
       <r>    14.5704    -0.0000    59.8889 </r>
       <r>    14.6601    -0.0000    59.8889 </r>
       <r>    14.7499    -0.0000    59.8889 </r>
       <r>    14.8396    -0.0000    59.8889 </r>
       <r>    14.9294    -0.0000    59.8889 </r>
       <r>    15.0191    -0.0000    59.8889 </r>
       <r>    15.1089    -0.0000    59.8889 </r>
       <r>    15.1987    -0.0000    59.8889 </r>
       <r>    15.2884    -0.0000    59.8889 </r>
       <r>    15.3782    -0.0000    59.8889 </r>
       <r>    15.4679    -0.0000    59.8889 </r>
       <r>    15.5577    -0.0001    59.8889 </r>
       <r>    15.6474    -0.0010    59.8888 </r>
       <r>    15.7372    -0.0056    59.8883 </r>
       <r>    15.8269    -0.0180    59.8867 </r>
       <r>    15.9167    -0.0192    59.8849 </r>
       <r>    16.0064     0.0661    59.8909 </r>
       <r>    16.0962     0.2784    59.9159 </r>
       <r>    16.1859     0.4504    59.9563 </r>
       <r>    16.2757     0.3742    59.9899 </r>
       <r>    16.3655     0.1468    60.0031 </r>
       <r>    16.4552     0.0016    60.0032 </r>
       <r>    16.5450    -0.0231    60.0011 </r>
       <r>    16.6347    -0.0101    60.0002 </r>
       <r>    16.7245    -0.0022    60.0000 </r>
       <r>    16.8142    -0.0003    60.0000 </r>
       <r>    16.9040    -0.0000    60.0000 </r>
       <r>    16.9937    -0.0000    60.0000 </r>
       <r>    17.0835    -0.0000    60.0000 </r>
       <r>    17.1732    -0.0000    60.0000 </r>
       <r>    17.2630    -0.0000    60.0000 </r>
       <r>    17.3527    -0.0000    60.0000 </r>
       <r>    17.4425    -0.0000    60.0000 </r>
       <r>    17.5322     0.0000    60.0000 </r>
       <r>    17.6220     0.0000    60.0000 </r>
       <r>    17.7118     0.0000    60.0000 </r>
       <r>    17.8015     0.0000    60.0000 </r>
       <r>    17.8913     0.0000    60.0000 </r>
       <r>    17.9810     0.0000    60.0000 </r>
       <r>    18.0708     0.0000    60.0000 </r>
       <r>    18.1605     0.0000    60.0000 </r>
      </set>
     </set>
    </array>
   </total>
  </dos>
 </calculation>
 <structure name="finalpos" >
  <crystal>
   <varray name="basis" >
    <v>       2.56679773       0.00000000       0.00000000 </v>
    <v>       1.28339887       2.22291204       0.00000000 </v>
    <v>       0.00000000       0.00000000      29.67047119 </v>
   </varray>
   <i name="volume">    169.29275369 </i>
   <varray name="rec_basis" >
    <v>       0.38959050      -0.22493018       0.00000000 </v>
    <v>       0.00000000       0.44986035       0.00000000 </v>
    <v>       0.00000000       0.00000000       0.03370354 </v>
   </varray>
  </crystal>
  <varray name="positions" >
   <v>      -0.00104752       0.00209504      -0.00453072 </v>
   <v>       0.33161720       0.33676561       0.06282450 </v>
   <v>       0.66301561       0.67396877       0.13125858 </v>
   <v>      -0.00571952       0.01143905       0.20010692 </v>
   <v>       0.32770518       0.34458963       0.26827457 </v>
   <v>       0.66039823       0.67920355       0.33723189 </v>
   <v>      -0.00905470       0.01810939       0.40568181 </v>
   <v>       0.32345654       0.35308692       0.47318339 </v>
   <v>       0.81988349       0.36023301       0.57536709 </v>
   <v>       0.72194757       0.55610485       0.55452824 </v>
  </varray>
 </structure>
</modeling>
