unknown system                          
           1
     2.566798    0.000000    0.000000
     1.283399    2.222912    0.000000
     0.000000    0.000000   29.670471
   Cu   H 
     8     2
Direct configuration=     1
   0.00000000  0.00000000  0.00000000
   0.33333333  0.33333333  0.07063526
   0.66666667  0.66666667  0.13908594
   0.00000000  0.00000000  0.20816512
   0.33333333  0.33333333  0.27656240
   0.66666667  0.66666667  0.34556034
   0.00000000  0.00000000  0.41400593
   0.33333333  0.33333333  0.48139269
   0.83333333  0.33333333  0.53425930
   0.66553542  0.66892916  0.53425930
Direct configuration=     2
   0.00002949 -0.00005899  0.00076781
   0.33328298  0.33343404  0.06999432
   0.66672009  0.66655982  0.13908864
  -0.00008389  0.00016777  0.20815797
   0.33344358  0.33311283  0.27651266
   0.66652696  0.66694608  0.34548074
   0.00010184 -0.00020368  0.41371811
   0.33151557  0.33696886  0.47954501
   0.84560110  0.30879781  0.53542762
   0.65506436  0.68987127  0.53523341
Direct configuration=     3
   0.00002591 -0.00005182  0.00067452
   0.33328910  0.33342181  0.07007220
   0.66671360  0.66657280  0.13908831
  -0.00007369  0.00014739  0.20815884
   0.33343019  0.33313962  0.27651870
   0.66654393  0.66691213  0.34549041
   0.00008947 -0.00017893  0.41375308
   0.33173642  0.33652716  0.47976950
   0.84411062  0.31177876  0.53528567
   0.65633655  0.68732690  0.53511506
Direct configuration=     4
   0.00006946 -0.00013892  0.00165190
   0.33322921  0.33354157  0.06941982
   0.66677989  0.66644022  0.13899040
  -0.00017251  0.00034501  0.20814358
   0.33356451  0.33287097  0.27643652
   0.66638046  0.66723908  0.34531189
   0.00009751 -0.00019502  0.41298338
   0.32940771  0.34118457  0.47762164
   0.84274490  0.31451020  0.53689444
   0.66010094  0.67979812  0.53647271
Direct configuration=     5
   0.00017821 -0.00035641  0.00409259
   0.33307968  0.33384064  0.06779073
   0.66694542  0.66610916  0.13874592
  -0.00041926  0.00083852  0.20810547
   0.33389995  0.33220011  0.27623131
   0.66597223  0.66805553  0.34486609
   0.00011760 -0.00023520  0.41106133
   0.32359254  0.35281492  0.47225806
   0.83933447  0.32133107  0.54091181
   0.66950125  0.66099749  0.53986298
Direct configuration=     6
   0.00015049 -0.00030097  0.00347042
   0.33311780  0.33376441  0.06820601
   0.66690322  0.66619355  0.13880824
  -0.00035636  0.00071272  0.20811519
   0.33381444  0.33237112  0.27628362
   0.66607629  0.66784741  0.34497973
   0.00011248 -0.00022496  0.41155128
   0.32507490  0.34985019  0.47362531
   0.84020383  0.31959234  0.53988773
   0.66710499  0.66579002  0.53899875
Direct configuration=     7
   0.00015985 -0.00031969  0.00329657
   0.33310350  0.33379299  0.06931828
   0.66690600  0.66618799  0.13827417
  -0.00038858  0.00077717  0.20794951
   0.33381997  0.33236005  0.27609518
   0.66603419  0.66793162  0.34413975
  -0.00105813  0.00211626  0.40898472
   0.32329279  0.35341442  0.47282037
   0.83654338  0.32691323  0.54211098
   0.67378911  0.65242178  0.54093675
Direct configuration=     8
   0.00016101 -0.00032202  0.00327493
   0.33310173  0.33379655  0.06945675
   0.66690635  0.66618730  0.13820768
  -0.00039260  0.00078519  0.20792888
   0.33382066  0.33235868  0.27607172
   0.66602895  0.66794210  0.34403518
  -0.00120386  0.00240772  0.40866521
   0.32307093  0.35385813  0.47272016
   0.83608769  0.32782462  0.54238775
   0.67462122  0.65075755  0.54117801
Direct configuration=     9
   0.00016070 -0.00032141  0.00312690
   0.33310517  0.33378967  0.07002837
   0.66689339  0.66621322  0.13802019
  -0.00039086  0.00078173  0.20780047
   0.33379498  0.33241004  0.27591130
   0.66601224  0.66797551  0.34342562
  -0.00188616  0.00377232  0.40760754
   0.32239124  0.35521752  0.47241588
   0.83903298  0.32193405  0.54350336
   0.67308841  0.65382318  0.54208665
Direct configuration=    10
   0.00016032 -0.00032064  0.00294310
   0.33310944  0.33378112  0.07073813
   0.66687730  0.66624541  0.13778739
  -0.00038872  0.00077743  0.20764102
   0.33376309  0.33247381  0.27571212
   0.66599150  0.66801700  0.34266876
  -0.00273335  0.00546669  0.40629427
   0.32154729  0.35690541  0.47203806
   0.84269003  0.31461994  0.54488857
   0.67118518  0.65762965  0.54321488
Direct configuration=    11
   0.00016028 -0.00032055  0.00292134
   0.33310995  0.33378011  0.07082219
   0.66687539  0.66624922  0.13775982
  -0.00038846  0.00077692  0.20762213
   0.33375932  0.33248136  0.27568853
   0.66598904  0.66802191  0.34257912
  -0.00283368  0.00566735  0.40613874
   0.32144735  0.35710530  0.47199332
   0.84312312  0.31375376  0.54505261
   0.67095978  0.65808043  0.54334849
Direct configuration=    12
   0.00015559 -0.00031119  0.00292055
   0.33312540  0.33374920  0.07088521
   0.66685212  0.66629576  0.13789190
  -0.00036749  0.00073498  0.20747945
   0.33370822  0.33258357  0.27542353
   0.66593525  0.66812951  0.34196870
  -0.00326531  0.00653062  0.40607519
   0.32123465  0.35753070  0.47176507
   0.84349084  0.31301831  0.54566306
   0.67133282  0.65733437  0.54385363
Direct configuration=    13
   0.00014155 -0.00028310  0.00291820
   0.33317177  0.33365646  0.07107426
   0.66678231  0.66643538  0.13828814
  -0.00030458  0.00060916  0.20705140
   0.33355491  0.33289019  0.27462855
   0.66577385  0.66845230  0.34013741
  -0.00456021  0.00912042  0.40588453
   0.32059656  0.35880689  0.47108033
   0.84459402  0.31081195  0.54749440
   0.67245191  0.65509617  0.54536906
Direct configuration=    14
   0.00011346 -0.00022691  0.00291351
   0.33326450  0.33347100  0.07145237
   0.66664269  0.66671463  0.13908061
  -0.00017876  0.00035751  0.20619531
   0.33324829  0.33350342  0.27303859
   0.66545106  0.66909788  0.33647485
  -0.00715001  0.01430001  0.40550321
   0.31932037  0.36135927  0.46971086
   0.84680038  0.30639924  0.55115709
   0.67469011  0.65061978  0.54839991
Direct configuration=    15
   0.00012967 -0.00025934  0.00291622
   0.33321098  0.33357804  0.07123415
   0.66672327  0.66655346  0.13862324
  -0.00025137  0.00050275  0.20668940
   0.33342525  0.33314950  0.27395622
   0.66563736  0.66872529  0.33858867
  -0.00565532  0.01131064  0.40572328
   0.32005691  0.35988618  0.47050124
   0.84552700  0.30894601  0.54904319
   0.67339835  0.65320330  0.54665067
Direct configuration=    16
   0.00012494 -0.00024989  0.00312508
   0.33326443  0.33347114  0.07101372
   0.66666868  0.66666263  0.13887774
  -0.00018119  0.00036237  0.20637299
   0.33325981  0.33348037  0.27276929
   0.66540743  0.66918515  0.33822707
  -0.00662875  0.01325749  0.40526848
   0.31991151  0.36017699  0.47034904
   0.84360165  0.31279670  0.55025649
   0.67677357  0.64645286  0.54766638
Direct configuration=    17
   0.00012320 -0.00024640  0.00320214
   0.33328415  0.33343171  0.07093240
   0.66664854  0.66670291  0.13897165
  -0.00015529  0.00031058  0.20625624
   0.33319877  0.33360246  0.27233135
   0.66532259  0.66935482  0.33809365
  -0.00698791  0.01397582  0.40510067
   0.31985786  0.36028429  0.47029289
   0.84289126  0.31421747  0.55070416
   0.67801891  0.64396217  0.54804114
Direct configuration=    18
   0.00011679 -0.00023357  0.00345835
   0.33332870  0.33334260  0.07064662
   0.66660171  0.66679658  0.13893152
  -0.00009336  0.00018672  0.20583297
   0.33300409  0.33399183  0.27119808
   0.66495775  0.67008451  0.33811438
  -0.00788184  0.01576369  0.40453053
   0.31988527  0.36022946  0.47031000
   0.84581564  0.30836872  0.55198295
   0.67646735  0.64706530  0.54892088
Direct configuration=    19
   0.00011638 -0.00023276  0.00347461
   0.33333153  0.33333694  0.07062849
   0.66659874  0.66680253  0.13892898
  -0.00008943  0.00017886  0.20580611
   0.33299173  0.33401653  0.27112616
   0.66493459  0.67013081  0.33811570
  -0.00793857  0.01587714  0.40449435
   0.31988701  0.36022598  0.47031108
   0.84600122  0.30799757  0.55206410
   0.67636889  0.64726222  0.54897671
Direct configuration=    20
   0.00010953 -0.00021907  0.00351318
   0.33334177  0.33331646  0.07059292
   0.66658720  0.66682561  0.13856638
  -0.00008573  0.00017145  0.20546581
   0.33288896  0.33422208  0.27107792
   0.66463946  0.67072107  0.33809298
  -0.00814521  0.01629041  0.40438419
   0.31999128  0.36001744  0.47036866
   0.84610390  0.30779221  0.55256538
   0.67677091  0.64645817  0.54929886
Direct configuration=    21
   0.00008900 -0.00017800  0.00362888
   0.33337250  0.33325500  0.07048624
   0.66655258  0.66689484  0.13747857
  -0.00007461  0.00014923  0.20444490
   0.33258065  0.33483870  0.27093321
   0.66375407  0.67249186  0.33802485
  -0.00876511  0.01753021  0.40405371
   0.32030409  0.35939182  0.47054141
   0.84641194  0.30717613  0.55406921
   0.67797698  0.64404604  0.55026530
Direct configuration=    22
   0.00007883 -0.00015765  0.00368619
   0.33338772  0.33322456  0.07043340
   0.66653543  0.66692914  0.13693972
  -0.00006911  0.00013822  0.20393918
   0.33242792  0.33514415  0.27086153
   0.66331548  0.67336904  0.33799110
  -0.00907218  0.01814437  0.40389000
   0.32045904  0.35908191  0.47062698
   0.84656453  0.30687094  0.55481415
   0.67857442  0.64285115  0.55074405
Direct configuration=    23
   0.00005287 -0.00010574  0.00353935
   0.33337497  0.33325006  0.07005841
   0.66652292  0.66695416  0.13652310
  -0.00014302  0.00028603  0.20364119
   0.33217432  0.33565135  0.27065001
   0.66272234  0.67455531  0.33768617
  -0.00913066  0.01826132  0.40423010
   0.32062972  0.35874056  0.47058316
   0.84645707  0.30708586  0.55575390
   0.67954155  0.64091690  0.55126089
Direct configuration=    24
   0.00004550 -0.00009100  0.00349768
   0.33337135  0.33325730  0.06995201
   0.66651937  0.66696126  0.13640488
  -0.00016399  0.00032798  0.20355664
   0.33210236  0.33579528  0.27058998
   0.66255404  0.67489193  0.33759964
  -0.00914725  0.01829451  0.40432661
   0.32067815  0.35864370  0.47057073
   0.84642658  0.30714685  0.55602057
   0.67981598  0.64036803  0.55140755
Direct configuration=    25
   0.00003077 -0.00006154  0.00341435
   0.33336411  0.33327177  0.06973919
   0.66651227  0.66697546  0.13616843
  -0.00020593  0.00041187  0.20338753
   0.33195844  0.33608313  0.27046994
   0.66221742  0.67556517  0.33742659
  -0.00918044  0.01836088  0.40451962
   0.32077502  0.35844997  0.47054586
   0.84636559  0.30726882  0.55655390
   0.68036485  0.63927030  0.55170087
Direct configuration=    26
   0.00000130 -0.00000261  0.00324768
   0.33334964  0.33330072  0.06931357
   0.66649807  0.66700387  0.13569555
  -0.00028982  0.00057965  0.20304930
   0.33167059  0.33665883  0.27022986
   0.66154418  0.67691164  0.33708048
  -0.00924681  0.01849362  0.40490565
   0.32096874  0.35806252  0.47049612
   0.84624362  0.30751276  0.55762056
   0.68146259  0.63707483  0.55228751
Direct configuration=    27
   0.00001299 -0.00002599  0.00331380
   0.33335538  0.33328924  0.06948243
   0.66650370  0.66699260  0.13588316
  -0.00025654  0.00051308  0.20318349
   0.33178479  0.33643043  0.27032511
   0.66181128  0.67637745  0.33721779
  -0.00922048  0.01844096  0.40475250
   0.32089188  0.35821623  0.47051585
   0.84629201  0.30741598  0.55719738
   0.68102708  0.63794584  0.55205477
Direct configuration=    28
  -0.00000114  0.00000229  0.00289512
   0.33333955  0.33332090  0.06896861
   0.66650518  0.66698963  0.13561574
  -0.00038161  0.00076322  0.20301618
   0.33143073  0.33713854  0.26993503
   0.66122749  0.67754502  0.33719124
  -0.00926286  0.01852573  0.40486171
   0.32113911  0.35772178  0.47071319
   0.84770690  0.30458619  0.55825447
   0.68049874  0.63900253  0.55247501
Direct configuration=    29
  -0.00000679  0.00001358  0.00272789
   0.33333323  0.33333354  0.06876338
   0.66650578  0.66698844  0.13550894
  -0.00043156  0.00086312  0.20294936
   0.33128932  0.33742136  0.26977923
   0.66099432  0.67801136  0.33718063
  -0.00927979  0.01855959  0.40490532
   0.32123785  0.35752429  0.47079201
   0.84827202  0.30345596  0.55867667
   0.68028771  0.63942458  0.55264285
Direct configuration=    30
  -0.00001732  0.00003463  0.00237351
   0.33331929  0.33336143  0.06847482
   0.66650190  0.66699620  0.13538593
  -0.00053031  0.00106063  0.20285469
   0.33105166  0.33789668  0.26956708
   0.66067712  0.67864577  0.33722299
  -0.00931144  0.01862288  0.40486562
   0.32139783  0.35720435  0.47097137
   0.84790831  0.30418337  0.55929600
   0.68120506  0.63758988  0.55291428
Direct configuration=    31
  -0.00004890  0.00009779  0.00131036
   0.33327746  0.33344508  0.06760911
   0.66649026  0.66701948  0.13501692
  -0.00082658  0.00165315  0.20257067
   0.33033867  0.33932266  0.26893064
   0.65972550  0.68054899  0.33735007
  -0.00940638  0.01881276  0.40474649
   0.32187774  0.35624452  0.47150947
   0.84681720  0.30636559  0.56115401
   0.68395711  0.63208579  0.55372854
Direct configuration=    32
  -0.00011206  0.00022411 -0.00081594
   0.33319381  0.33361238  0.06587771
   0.66646698  0.66706604  0.13427889
  -0.00141910  0.00283820  0.20200263
   0.32891269  0.34217463  0.26765777
   0.65782228  0.68435544  0.33760423
  -0.00959626  0.01919253  0.40450825
   0.32283757  0.35432486  0.47258567
   0.84463498  0.31073004  0.56487001
   0.68946120  0.62107760  0.55535707
Direct configuration=    33
  -0.00007377  0.00014755  0.00047288
   0.33324451  0.33351097  0.06692716
   0.66648109  0.66703782  0.13472623
  -0.00105995  0.00211990  0.20234694
   0.32977702  0.34044596  0.26842930
   0.65897588  0.68204823  0.33745017
  -0.00948117  0.01896234  0.40465266
   0.32225579  0.35548843  0.47193335
   0.84595769  0.30808462  0.56261762
   0.68612500  0.62775000  0.55436997
Direct configuration=    34
  -0.00009447  0.00018894 -0.00028732
   0.33321810  0.33356379  0.06647501
   0.66644955  0.66710091  0.13441269
  -0.00130849  0.00261697  0.20202955
   0.32934132  0.34131737  0.26837404
   0.65845008  0.68309984  0.33737426
  -0.00955030  0.01910059  0.40470333
   0.32256208  0.35487584  0.47221498
   0.84590520  0.30818959  0.56384486
   0.68722901  0.62554197  0.55478489
Direct configuration=    35
  -0.00014191  0.00028382 -0.00202976
   0.33315757  0.33368485  0.06543865
   0.66637724  0.66724551  0.13369404
  -0.00187814  0.00375628  0.20130207
   0.32834265  0.34331469  0.26824737
   0.65724489  0.68551022  0.33720027
  -0.00970874  0.01941747  0.40481947
   0.32326412  0.35347176  0.47286047
   0.84578489  0.30843021  0.56665779
   0.68975950  0.62048100  0.55573591
Direct configuration=    36
  -0.00017371  0.00034742 -0.00286520
   0.33312106  0.33375788  0.06488925
   0.66626966  0.66746068  0.13312035
  -0.00226467  0.00452933  0.20091287
   0.32786412  0.34427177  0.26846214
   0.65681961  0.68636077  0.33696863
  -0.00982212  0.01964424  0.40511284
   0.32361183  0.35277633  0.47300995
   0.84325925  0.31348149  0.56802388
   0.69351705  0.61296590  0.55629157
Direct configuration=    37
  -0.00017846  0.00035693 -0.00299003
   0.33311561  0.33376879  0.06480716
   0.66625358  0.66749283  0.13303463
  -0.00232242  0.00464484  0.20085471
   0.32779261  0.34441477  0.26849423
   0.65675607  0.68648786  0.33693402
  -0.00983906  0.01967813  0.40515668
   0.32366379  0.35267242  0.47303229
   0.84288188  0.31423625  0.56822800
   0.69407850  0.61184301  0.55637459
Direct configuration=    38
  -0.00021343  0.00042685 -0.00338885
   0.33307708  0.33384583  0.06438886
   0.66609847  0.66780305  0.13252966
  -0.00264826  0.00529653  0.20070582
   0.32751423  0.34497155  0.26865762
   0.65669897  0.68660205  0.33685541
  -0.00994352  0.01988705  0.40542092
   0.32384514  0.35230972  0.47296173
   0.84258110  0.31483780  0.56928416
   0.69519230  0.60961539  0.55651096
Direct configuration=    39
  -0.00021642  0.00043285 -0.00342305
   0.33307378  0.33385244  0.06435299
   0.66608517  0.66782965  0.13248636
  -0.00267620  0.00535240  0.20069305
   0.32749036  0.34501929  0.26867163
   0.65669408  0.68661184  0.33684867
  -0.00995248  0.01990496  0.40544357
   0.32386069  0.35227862  0.47295568
   0.84255531  0.31488937  0.56937472
   0.69528780  0.60942440  0.55652266
Direct configuration=    40
  -0.00024105  0.00048211 -0.00343209
   0.33304203  0.33391594  0.06411914
   0.66595247  0.66809506  0.13226458
  -0.00284941  0.00569883  0.20071548
   0.32741835  0.34516329  0.26862891
   0.65686629  0.68626742  0.33699593
  -0.00999636  0.01999272  0.40547057
   0.32386560  0.35226881  0.47287120
   0.84168167  0.31663665  0.56977491
   0.69646250  0.60707500  0.55651766
Direct configuration=    41
  -0.00031494  0.00062989 -0.00345922
   0.33294678  0.33410644  0.06341760
   0.66555435  0.66889130  0.13159921
  -0.00336905  0.00673810  0.20078278
   0.32720234  0.34559531  0.26850073
   0.65738293  0.68523413  0.33743772
  -0.01012799  0.02025598  0.40555154
   0.32388031  0.35223937  0.47261776
   0.83906076  0.32187849  0.57097549
   0.69998660  0.60002681  0.55650267
Direct configuration=    42
  -0.00029106  0.00058212 -0.00345045
   0.33297756  0.33404487  0.06364434
   0.66568302  0.66863395  0.13181426
  -0.00320110  0.00640220  0.20076103
   0.32727216  0.34545568  0.26854216
   0.65721595  0.68556810  0.33729493
  -0.01008545  0.02017089  0.40552537
   0.32387556  0.35224889  0.47269967
   0.83990785  0.32018429  0.57058746
   0.69884759  0.60230483  0.55650752
Direct configuration=    43
  -0.00029597  0.00059195 -0.00345225
   0.33297123  0.33405754  0.06359770
   0.66565655  0.66868689  0.13177003
  -0.00323565  0.00647129  0.20076550
   0.32725780  0.34548440  0.26853364
   0.65725030  0.68549940  0.33732430
  -0.01009420  0.02018839  0.40553075
   0.32387654  0.35224693  0.47268282
   0.83973361  0.32053278  0.57066727
   0.69908188  0.60183624  0.55650652
Direct configuration=    44
  -0.00029257  0.00058514 -0.00345100
   0.33297562  0.33404876  0.06363001
   0.66567489  0.66865022  0.13180067
  -0.00321171  0.00642343  0.20076240
   0.32726775  0.34546451  0.26853954
   0.65722651  0.68554699  0.33730396
  -0.01008813  0.02017627  0.40552702
   0.32387586  0.35224828  0.47269449
   0.83985431  0.32029137  0.57061198
   0.69891958  0.60216085  0.55650721
Direct configuration=    45
  -0.00029427  0.00058854 -0.00345163
   0.33297342  0.33405315  0.06361385
   0.66566572  0.66866856  0.13178535
  -0.00322368  0.00644736  0.20076395
   0.32726277  0.34547445  0.26853659
   0.65723840  0.68552319  0.33731413
  -0.01009117  0.02018233  0.40552889
   0.32387620  0.35224761  0.47268866
   0.83979396  0.32041208  0.57063963
   0.69900073  0.60199855  0.55650686
Direct configuration=    46
  -0.00029342  0.00058684 -0.00345132
   0.33297452  0.33405096  0.06362193
   0.66567030  0.66865939  0.13179301
  -0.00321770  0.00643540  0.20076318
   0.32726526  0.34546948  0.26853806
   0.65723246  0.68553509  0.33730905
  -0.01008965  0.02017930  0.40552795
   0.32387603  0.35224795  0.47269157
   0.83982412  0.32035175  0.57062581
   0.69896017  0.60207966  0.55650704
Direct configuration=    47
  -0.00029414  0.00058829 -0.00345158
   0.33297359  0.33405282  0.06361506
   0.66566641  0.66866718  0.13178650
  -0.00322278  0.00644557  0.20076384
   0.32726315  0.34547371  0.26853681
   0.65723751  0.68552498  0.33731337
  -0.01009094  0.02018188  0.40552875
   0.32387617  0.35224766  0.47268909
   0.83979848  0.32040304  0.57063756
   0.69899465  0.60201070  0.55650689
Direct configuration=    48
  -0.00029378  0.00058757 -0.00345145
   0.33297405  0.33405189  0.06361850
   0.66566836  0.66866329  0.13178975
  -0.00322024  0.00644049  0.20076351
   0.32726420  0.34547160  0.26853744
   0.65723498  0.68553003  0.33731121
  -0.01009029  0.02018059  0.40552835
   0.32387610  0.35224780  0.47269033
   0.83981130  0.32037740  0.57063168
   0.69897741  0.60204518  0.55650696
Direct configuration=    49
  -0.00029400  0.00058801 -0.00345153
   0.33297377  0.33405246  0.06361641
   0.66566717  0.66866566  0.13178777
  -0.00322179  0.00644358  0.20076371
   0.32726356  0.34547288  0.26853706
   0.65723652  0.68552695  0.33731252
  -0.01009069  0.02018137  0.40552859
   0.32387614  0.35224771  0.47268958
   0.83980350  0.32039301  0.57063526
   0.69898790  0.60202419  0.55650692
Direct configuration=    50
  -0.00034008  0.00068017 -0.00352353
   0.33289707  0.33420586  0.06342282
   0.66541789  0.66916421  0.13162695
  -0.00352599  0.00705197  0.20062706
   0.32723577  0.34552847  0.26857981
   0.65759727  0.68480545  0.33745757
  -0.01009684  0.02019367  0.40549792
   0.32383612  0.35232776  0.47265828
   0.83902581  0.32194839  0.57127394
   0.70015506  0.59968987  0.55630547
Direct configuration=    51
  -0.00033306  0.00066612 -0.00351256
   0.33290876  0.33418249  0.06345232
   0.66545588  0.66908824  0.13165146
  -0.00347963  0.00695926  0.20064788
   0.32724000  0.34551999  0.26857330
   0.65754230  0.68491540  0.33743546
  -0.01009590  0.02019180  0.40550260
   0.32384222  0.35231556  0.47266305
   0.83914432  0.32171137  0.57117661
   0.69997720  0.60004559  0.55633617
Direct configuration=    52
  -0.00037458  0.00074916 -0.00361172
   0.33283097  0.33433807  0.06337831
   0.66523657  0.66952686  0.13159845
  -0.00374505  0.00749009  0.20047456
   0.32725505  0.34548990  0.26864918
   0.65788709  0.68422581  0.33749875
  -0.01006089  0.02012177  0.40546710
   0.32378721  0.35242559  0.47268890
   0.83763711  0.32472578  0.57157262
   0.70174860  0.59650280  0.55621013
Direct configuration=    53
  -0.00040025  0.00080050 -0.00367303
   0.33278287  0.33443427  0.06333255
   0.66510097  0.66979807  0.13156568
  -0.00390916  0.00781832  0.20036739
   0.32726436  0.34547129  0.26869609
   0.65810029  0.68379942  0.33753789
  -0.01003924  0.02007848  0.40544516
   0.32375319  0.35249362  0.47270488
   0.83670518  0.32658965  0.57181747
   0.70284389  0.59431221  0.55613220
Direct configuration=    54
  -0.00045160  0.00090319 -0.00379566
   0.33268667  0.33462667  0.06324104
   0.66482976  0.67034048  0.13150013
  -0.00423738  0.00847476  0.20015306
   0.32728297  0.34543407  0.26878993
   0.65852667  0.68294665  0.33761615
  -0.00999594  0.01999188  0.40540126
   0.32368516  0.35262967  0.47273685
   0.83484131  0.33031739  0.57230718
   0.70503447  0.58993105  0.55597634
Direct configuration=    55
  -0.00050591  0.00101182 -0.00391308
   0.33258845  0.33482311  0.06322425
   0.66460763  0.67078473  0.13145641
  -0.00446576  0.00893153  0.20008251
   0.32731586  0.34536827  0.26878503
   0.65881320  0.68237360  0.33758770
  -0.00992646  0.01985292  0.40541729
   0.32363472  0.35273056  0.47277002
   0.83350808  0.33298385  0.57273429
   0.70663228  0.58673544  0.55578185
Direct configuration=    56
  -0.00064715  0.00129430 -0.00421840
   0.33233304  0.33533393  0.06318059
   0.66403004  0.67193992  0.13134274
  -0.00505962  0.01011925  0.19989905
   0.32740141  0.34519718  0.26877230
   0.65955826  0.68088347  0.33751371
  -0.00974578  0.01949157  0.40545897
   0.32350356  0.35299289  0.47285628
   0.83004126  0.33991749  0.57384491
   0.71078709  0.57842582  0.55527613
Direct configuration=    57
  -0.00059082  0.00118164 -0.00409663
   0.33243491  0.33513019  0.06319800
   0.66426041  0.67147918  0.13138808
  -0.00482277  0.00964553  0.19997222
   0.32736729  0.34526542  0.26877738
   0.65926110  0.68147780  0.33754322
  -0.00981785  0.01963569  0.40544235
   0.32355587  0.35288826  0.47282188
   0.83142398  0.33715203  0.57340194
   0.70912996  0.58174008  0.55547783
Direct configuration=    58
  -0.00066241  0.00132482 -0.00421920
   0.33229474  0.33541053  0.06317077
   0.66400607  0.67198785  0.13133862
  -0.00503709  0.01007419  0.19999365
   0.32742688  0.34514625  0.26869317
   0.65953956  0.68092087  0.33746838
  -0.00968453  0.01936906  0.40551173
   0.32351387  0.35297226  0.47287923
   0.82934562  0.34130877  0.57377584
   0.71145938  0.57708123  0.55531410
Direct configuration=    59
  -0.00078964  0.00157928 -0.00443705
   0.33204562  0.33590876  0.06312237
   0.66355405  0.67289190  0.13125071
  -0.00541801  0.01083603  0.20003173
   0.32753278  0.34493444  0.26854350
   0.66003447  0.67993107  0.33733535
  -0.00944759  0.01889518  0.40563503
   0.32343922  0.35312156  0.47298116
   0.82565180  0.34869641  0.57444037
   0.71559939  0.56880121  0.55502311
Direct configuration=    60
  -0.00104411  0.00208822 -0.00487274
   0.33154739  0.33690523  0.06302556
   0.66265000  0.67469999  0.13107489
  -0.00617985  0.01235970  0.20010790
   0.32774459  0.34451082  0.26824417
   0.66102427  0.67795145  0.33706931
  -0.00897371  0.01794742  0.40588163
   0.32328993  0.35342015  0.47318503
   0.81826416  0.36347168  0.57576941
   0.72387942  0.55224117  0.55444113
Direct configuration=    61
  -0.00088267  0.00176533 -0.00459632
   0.33186348  0.33627304  0.06308698
   0.66322356  0.67355288  0.13118644
  -0.00569652  0.01139303  0.20005958
   0.32761021  0.34477957  0.26843407
   0.66039631  0.67920738  0.33723810
  -0.00927435  0.01854871  0.40572517
   0.32338464  0.35323071  0.47305569
   0.82295111  0.35409778  0.57492622
   0.71862631  0.56274739  0.55481036
Direct configuration=    62
  -0.00090892  0.00181784 -0.00464127
   0.33181208  0.33637585  0.06307699
   0.66313028  0.67373943  0.13116830
  -0.00577512  0.01155024  0.20006744
   0.32763207  0.34473587  0.26840319
   0.66049843  0.67900313  0.33721065
  -0.00922546  0.01845092  0.40575062
   0.32336924  0.35326152  0.47307672
   0.82218888  0.35562224  0.57506335
   0.71948061  0.56103878  0.55475031
Direct configuration=    63
  -0.00098263  0.00196527 -0.00458247
   0.33170843  0.33658314  0.06294271
   0.66306930  0.67386141  0.13121632
  -0.00574555  0.01149110  0.20008844
   0.32767095  0.34465809  0.26833478
   0.66044514  0.67910972  0.33722195
  -0.00913464  0.01826928  0.40571402
   0.32341567  0.35316866  0.47313346
   0.82096277  0.35807447  0.57522489
   0.72079266  0.55841469  0.55463221
Direct configuration=    64
  -0.00104752  0.00209504 -0.00453072
   0.33161720  0.33676561  0.06282450
   0.66301561  0.67396877  0.13125858
  -0.00571952  0.01143905  0.20010692
   0.32770518  0.34458963  0.26827457
   0.66039823  0.67920355  0.33723189
  -0.00905470  0.01810939  0.40568181
   0.32345654  0.35308692  0.47318339
   0.81988349  0.36023301  0.57536709
   0.72194757  0.55610485  0.55452824
