       N       E                     dE             d eps       ncg     rms          rms(c)
DAV:   1     0.231872982710E+04    0.23187E+04   -0.94864E+04  2752   0.160E+03
DAV:   2     0.213764394821E+03   -0.21050E+04   -0.20181E+04  2752   0.381E+02
DAV:   3    -0.800058740330E+02   -0.29377E+03   -0.26503E+03  2760   0.192E+02
DAV:   4    -0.965127119425E+02   -0.16507E+02   -0.16146E+02  3104   0.641E+01
DAV:   5    -0.968791429498E+02   -0.36643E+00   -0.36547E+00  3136   0.838E+00    0.444E+01
DAV:   6    -0.774517848017E+02    0.19427E+02   -0.24529E+02  2912   0.120E+02    0.230E+01
DAV:   7    -0.652935404382E+02    0.12158E+02   -0.62188E+01  2972   0.764E+01    0.106E+01
DAV:   8    -0.630328714166E+02    0.22607E+01   -0.16135E+01  3176   0.647E+01    0.102E+01
DAV:   9    -0.607963645945E+02    0.22365E+01   -0.47940E+00  3800   0.333E+01    0.738E+00
DAV:  10    -0.608075454358E+02   -0.11181E-01   -0.50765E+00  4020   0.223E+01    0.597E+00
DAV:  11    -0.619229973281E+02   -0.11155E+01   -0.23847E+00  3212   0.308E+01    0.451E+00
DAV:  12    -0.659667993649E+02   -0.40438E+01   -0.25149E+00  3320   0.139E+01    0.233E+00
DAV:  13    -0.720794047397E+02   -0.61126E+01   -0.35345E+00  3932   0.118E+01    0.214E+00
DAV:  14    -0.751409564584E+02   -0.30616E+01   -0.17343E+00  3916   0.131E+01    0.168E+00
DAV:  15    -0.793046017514E+02   -0.41636E+01   -0.40219E+00  3116   0.849E+00    0.953E-01
DAV:  16    -0.801081608313E+02   -0.80356E+00   -0.85122E-01  3092   0.421E+00    0.865E-01
DAV:  17    -0.804294113789E+02   -0.32125E+00   -0.18750E-01  3508   0.263E+00    0.616E-01
DAV:  18    -0.807108538377E+02   -0.28144E+00   -0.12708E-01  3400   0.318E+00    0.502E-01
DAV:  19    -0.809061030909E+02   -0.19525E+00   -0.35384E-02  3408   0.231E+00    0.356E-01
DAV:  20    -0.812447723713E+02   -0.33867E+00   -0.40976E-02  3600   0.171E+00    0.281E-01
DAV:  21    -0.814740649444E+02   -0.22929E+00   -0.11037E-02  3380   0.155E+00    0.247E-01
DAV:  22    -0.817770833385E+02   -0.30302E+00   -0.10773E-02  3632   0.109E+00    0.147E-01
DAV:  23    -0.818587894243E+02   -0.81706E-01   -0.86375E-03  3832   0.684E-01    0.132E-01
DAV:  24    -0.818863904272E+02   -0.27601E-01   -0.22524E-03  3432   0.622E-01    0.712E-02
DAV:  25    -0.819147546909E+02   -0.28364E-01   -0.22157E-03  3292   0.293E-01    0.570E-02
DAV:  26    -0.819243157246E+02   -0.95610E-02   -0.60211E-04  2240   0.165E-01    0.249E-02
DAV:  27    -0.819271172743E+02   -0.28015E-02   -0.21541E-04  1984   0.824E-02    0.130E-02
DAV:  28    -0.819286169284E+02   -0.14997E-02   -0.14862E-04  1984   0.768E-02    0.108E-02
DAV:  29    -0.819288044487E+02   -0.18752E-03   -0.38695E-05  1776   0.631E-02
   1 F= -.89886406E+02 E0= -.89868654E+02  d E =-.898864E+02  mag=     0.0017
       N       E                     dE             d eps       ncg     rms          rms(c)
DAV:   1    -0.819451704062E+02   -0.16553E-01   -0.17084E+01  3036   0.998E+00    0.407E-01
DAV:   2    -0.819766880856E+02   -0.31518E-01   -0.34189E-01  4136   0.459E+00    0.545E-01
DAV:   3    -0.819735702808E+02    0.31178E-02   -0.28283E-02  3000   0.321E+00    0.234E-01
DAV:   4    -0.819734301289E+02    0.14015E-03   -0.65287E-03  3108   0.955E-01    0.215E-01
DAV:   5    -0.819733072153E+02    0.12291E-03   -0.23044E-03  2760   0.718E-01    0.180E-01
DAV:   6    -0.819728647509E+02    0.44246E-03   -0.16843E-03  3040   0.463E-01    0.697E-02
DAV:   7    -0.819729169383E+02   -0.52187E-04   -0.80539E-04  2636   0.411E-01
   2 F= -.89941080E+02 E0= -.89923287E+02  d E =-.546737E-01  mag=     0.0010
       N       E                     dE             d eps       ncg     rms          rms(c)
DAV:   1    -0.817146435563E+02    0.25822E+00   -0.15863E+02  3056   0.321E+01    0.132E+00
DAV:   2    -0.820591898039E+02   -0.34455E+00   -0.36889E+00  4264   0.155E+01    0.173E+00
DAV:   3    -0.820198618320E+02    0.39328E-01   -0.23967E-01  3028   0.105E+01    0.682E-01
DAV:   4    -0.820199180720E+02   -0.56240E-04   -0.67377E-02  3092   0.293E+00    0.644E-01
DAV:   5    -0.820193638553E+02    0.55422E-03   -0.26144E-02  2908   0.239E+00    0.544E-01
DAV:   6    -0.820152320006E+02    0.41319E-02   -0.14885E-02  3776   0.126E+00    0.240E-01
DAV:   7    -0.820153013458E+02   -0.69345E-04   -0.73222E-03  4532   0.123E+00    0.161E-01
DAV:   8    -0.820149167644E+02    0.38458E-03   -0.17206E-03  2864   0.104E+00    0.867E-02
DAV:   9    -0.820148342835E+02    0.82481E-04   -0.31351E-04  1808   0.263E-01
   3 F= -.90016473E+02 E0= -.89999149E+02  d E =-.130067E+00  mag=     0.0004
       N       E                     dE             d eps       ncg     rms          rms(c)
DAV:   1    -0.820130433777E+02    0.18734E-02   -0.26642E-01  3036   0.124E+00    0.548E-02
DAV:   2    -0.820135018532E+02   -0.45848E-03   -0.48722E-03  3992   0.622E-01    0.704E-02
DAV:   3    -0.820134583736E+02    0.43480E-04   -0.53048E-04  2288   0.444E-01
   4 F= -.90016555E+02 E0= -.89999260E+02  d E =-.130149E+00  mag=     0.0004
       N       E                     dE             d eps       ncg     rms          rms(c)
DAV:   1    -0.820140856412E+02   -0.58379E-03   -0.69985E-02  3076   0.640E-01    0.213E-02
DAV:   2    -0.820141966636E+02   -0.11102E-03   -0.10183E-03  2768   0.130E-01
   5 F= -.90016537E+02 E0= -.89999205E+02  d E =-.130131E+00  mag=     0.0003
       N       E                     dE             d eps       ncg     rms          rms(c)
DAV:   1    -0.820136991653E+02    0.38648E-03   -0.27618E-02  3024   0.411E-01    0.134E-02
DAV:   2    -0.820137250790E+02   -0.25914E-04   -0.25777E-04  1828   0.150E-01
   6 F= -.90016546E+02 E0= -.89999205E+02  d E =-.130140E+00  mag=     0.0003
       N       E                     dE             d eps       ncg     rms          rms(c)
DAV:   1    -0.820139711723E+02   -0.27201E-03   -0.70624E-03  3468   0.240E-01    0.991E-03
DAV:   2    -0.820139773813E+02   -0.62091E-05   -0.47563E-05  1668   0.102E-01
   7 F= -.90016560E+02 E0= -.89999229E+02  d E =-.130154E+00  mag=     0.0002
       N       E                     dE             d eps       ncg     rms          rms(c)
DAV:   1    -0.820138608617E+02    0.11031E-03   -0.17246E-03  3352   0.145E-01    0.488E-03
DAV:   2    -0.820138676425E+02   -0.67808E-05   -0.53334E-05  1672   0.117E-01
   8 F= -.90016570E+02 E0= -.89999237E+02  d E =-.130163E+00  mag=     0.0002
       N       E                     dE             d eps       ncg     rms          rms(c)
DAV:   1    -0.820045206998E+02    0.93402E-02   -0.51811E+00  3032   0.553E+00    0.152E-01
DAV:   2    -0.820133581643E+02   -0.88375E-02   -0.91760E-02  3976   0.207E+00    0.231E-01
DAV:   3    -0.820130422006E+02    0.31596E-03   -0.75679E-03  2912   0.144E+00    0.129E-01
DAV:   4    -0.820130469831E+02   -0.47825E-05   -0.18837E-03  2684   0.525E-01
   9 F= -.90026700E+02 E0= -.90009314E+02  d E =-.101306E-01  mag=     0.0002
       N       E                     dE             d eps       ncg     rms          rms(c)
DAV:   1    -0.819219414528E+02    0.91101E-01   -0.46988E+01  3044   0.169E+01    0.549E-01
DAV:   2    -0.820125715014E+02   -0.90630E-01   -0.95285E-01  4136   0.763E+00    0.833E-01
DAV:   3    -0.820044147795E+02    0.81567E-02   -0.71655E-02  3140   0.511E+00    0.442E-01
DAV:   4    -0.820041427205E+02    0.27206E-03   -0.18274E-02  3032   0.158E+00    0.414E-01
DAV:   5    -0.820030863622E+02    0.10564E-02   -0.95426E-03  3080   0.181E+00    0.366E-01
DAV:   6    -0.820015937276E+02    0.14926E-02   -0.15134E-02  4036   0.160E+00    0.174E-01
DAV:   7    -0.820012339911E+02    0.35974E-03   -0.22277E-03  3344   0.448E-01    0.920E-02
DAV:   8    -0.820011200098E+02    0.11398E-03   -0.70654E-04  2376   0.533E-01
  10 F= -.90047767E+02 E0= -.90030411E+02  d E =-.311980E-01  mag=     0.0001
       N       E                     dE             d eps       ncg     rms          rms(c)
DAV:   1    -0.815956602618E+02    0.40557E+00   -0.19301E+02  3132   0.359E+01    0.118E+00
DAV:   2    -0.820004227871E+02   -0.40476E+00   -0.41735E+00  4356   0.189E+01    0.195E+00
DAV:   3    -0.819474477012E+02    0.52975E-01   -0.34412E-01  3644   0.118E+01    0.857E-01
DAV:   4    -0.819475622438E+02   -0.11454E-03   -0.77992E-02  2956   0.315E+00    0.799E-01
DAV:   5    -0.819453553796E+02    0.22069E-02   -0.35969E-02  2984   0.297E+00    0.694E-01
DAV:   6    -0.819373712272E+02    0.79842E-02   -0.35677E-02  4416   0.228E+00    0.251E-01
DAV:   7    -0.819370439313E+02    0.32730E-03   -0.58588E-03  4004   0.116E+00    0.144E-01
DAV:   8    -0.819368086383E+02    0.23529E-03   -0.15771E-03  2752   0.873E-01    0.785E-02
DAV:   9    -0.819367884501E+02    0.20188E-04   -0.45175E-04  1888   0.298E-01
  11 F= -.90050227E+02 E0= -.90034933E+02  d E =-.336574E-01  mag=     0.0000
       N       E                     dE             d eps       ncg     rms          rms(c)
DAV:   1    -0.818994416515E+02    0.37367E-01   -0.42385E+01  3028   0.162E+01    0.436E-01
DAV:   2    -0.819803971281E+02   -0.80955E-01   -0.84532E-01  3932   0.433E+00    0.608E-01
DAV:   3    -0.819780060441E+02    0.23911E-02   -0.35087E-02  2888   0.256E+00    0.406E-01
DAV:   4    -0.819769663067E+02    0.10397E-02   -0.58837E-03  3168   0.118E+00    0.356E-01
DAV:   5    -0.819747633329E+02    0.22030E-02   -0.51986E-03  4020   0.538E-01    0.184E-01
DAV:   6    -0.819747714031E+02   -0.80702E-05   -0.52994E-03  3168   0.164E+00    0.162E-01
DAV:   7    -0.819743025378E+02    0.46887E-03   -0.33600E-03  3216   0.117E+00    0.542E-02
DAV:   8    -0.819742947952E+02    0.77425E-05   -0.49687E-04  1860   0.363E-01
  12 F= -.90055827E+02 E0= -.90039107E+02  d E =-.392571E-01  mag=     0.0000
       N       E                     dE             d eps       ncg     rms          rms(c)
DAV:   1    -0.819627083386E+02    0.11594E-01   -0.76552E+00  2980   0.684E+00    0.177E-01
DAV:   2    -0.819760504142E+02   -0.13342E-01   -0.13923E-01  4016   0.241E+00    0.279E-01
DAV:   3    -0.819755601546E+02    0.49026E-03   -0.11096E-02  3024   0.168E+00    0.171E-01
DAV:   4    -0.819755093294E+02    0.50825E-04   -0.22737E-03  2732   0.565E-01    0.160E-01
DAV:   5    -0.819751304227E+02    0.37891E-03   -0.11556E-03  2860   0.443E-01    0.105E-01
DAV:   6    -0.819749975716E+02    0.13285E-03   -0.14756E-03  2836   0.632E-01
  13 F= -.90065039E+02 E0= -.90048806E+02  d E =-.921240E-02  mag=     0.0000
       N       E                     dE             d eps       ncg     rms          rms(c)
DAV:   1    -0.818404257623E+02    0.13470E+00   -0.69218E+01  3008   0.210E+01    0.611E-01
DAV:   2    -0.819751735443E+02   -0.13475E+00   -0.13987E+00  4256   0.890E+00    0.954E-01
DAV:   3    -0.819643003613E+02    0.10873E-01   -0.12215E-01  3288   0.631E+00    0.496E-01
DAV:   4    -0.819642720807E+02    0.28281E-04   -0.28550E-02  2896   0.191E+00    0.463E-01
DAV:   5    -0.819622593437E+02    0.20127E-02   -0.12209E-02  2924   0.142E+00    0.347E-01
DAV:   6    -0.819604542725E+02    0.18051E-02   -0.15791E-02  4152   0.172E+00    0.139E-01
DAV:   7    -0.819602829336E+02    0.17134E-03   -0.22757E-03  3272   0.608E-01    0.113E-01
DAV:   8    -0.819601500489E+02    0.13288E-03   -0.14604E-03  2884   0.615E-01
  14 F= -.90075680E+02 E0= -.90060756E+02  d E =-.198538E-01  mag=     0.0000
       N       E                     dE             d eps       ncg     rms          rms(c)
DAV:   1    -0.819616612375E+02   -0.13783E-02   -0.40860E-01  3020   0.159E+00    0.392E-02
DAV:   2    -0.819623489777E+02   -0.68774E-03   -0.71644E-03  3948   0.518E-01    0.658E-02
DAV:   3    -0.819623281206E+02    0.20857E-04   -0.47705E-04  2112   0.297E-01
  15 F= -.90075895E+02 E0= -.90060859E+02  d E =-.200687E-01  mag=     0.0000
       N       E                     dE             d eps       ncg     rms          rms(c)
DAV:   1    -0.819615256717E+02    0.82331E-03   -0.45594E-02  3068   0.540E-01    0.448E-02
DAV:   2    -0.819615363268E+02   -0.10655E-04   -0.38711E-04  1740   0.344E-01
  16 F= -.90075770E+02 E0= -.90060699E+02  d E =-.199435E-01  mag=     0.0000
       N       E                     dE             d eps       ncg     rms          rms(c)
DAV:   1    -0.819620644469E+02   -0.53878E-03   -0.22240E-02  3968   0.544E-01    0.254E-02
DAV:   2    -0.819620879738E+02   -0.23527E-04   -0.30894E-04  1640   0.408E-01
  17 F= -.90075865E+02 E0= -.90060841E+02  d E =-.200387E-01  mag=     0.0000
       N       E                     dE             d eps       ncg     rms          rms(c)
DAV:   1    -0.819618388693E+02    0.22558E-03   -0.95076E-04  2360   0.338E-01    0.202E-02
DAV:   2    -0.819619392889E+02   -0.10042E-03   -0.10322E-03  2780   0.296E-01
  18 F= -.90075841E+02 E0= -.90060804E+02  d E =-.200144E-01  mag=     0.0000
       N       E                     dE             d eps       ncg     rms          rms(c)
DAV:   1    -0.819619859620E+02   -0.14709E-03   -0.49723E-04  2136   0.224E-01    0.164E-02
DAV:   2    -0.819620317950E+02   -0.45833E-04   -0.47503E-04  1772   0.307E-01
  19 F= -.90075828E+02 E0= -.90060779E+02  d E =-.200012E-01  mag=     0.0000
       N       E                     dE             d eps       ncg     rms          rms(c)
DAV:   1    -0.819619375090E+02    0.48453E-04   -0.17243E-04  1620   0.236E-01    0.754E-03
DAV:   2    -0.819619564872E+02   -0.18978E-04   -0.17052E-04  1764   0.418E-02
  20 F= -.90075834E+02 E0= -.90060785E+02  d E =-.200073E-01  mag=     0.0000
       N       E                     dE             d eps       ncg     rms          rms(c)
DAV:   1    -0.819620022090E+02   -0.64700E-04   -0.79435E-05  1632   0.610E-02    0.667E-03
DAV:   2    -0.819620075596E+02   -0.53507E-05   -0.52149E-05  1652   0.123E-01
  21 F= -.90075843E+02 E0= -.90060794E+02  d E =-.200164E-01  mag=     0.0000
       N       E                     dE             d eps       ncg     rms          rms(c)
DAV:   1    -0.819619877233E+02    0.14486E-04   -0.16369E-05  1612   0.892E-02    0.200E-03
DAV:   2    -0.819619887331E+02   -0.10097E-05   -0.36823E-06  1676   0.147E-02
  22 F= -.90075842E+02 E0= -.90060790E+02  d E =-.200158E-01  mag=     0.0000
       N       E                     dE             d eps       ncg     rms          rms(c)
DAV:   1    -0.819619933169E+02   -0.55936E-05   -0.30286E-06  1600   0.211E-02    0.162E-03
DAV:   2    -0.819619940644E+02   -0.74747E-06   -0.15928E-06  1616   0.269E-02
  23 F= -.90075843E+02 E0= -.90060791E+02  d E =-.200168E-01  mag=     0.0000
       N       E                     dE             d eps       ncg     rms          rms(c)
DAV:   1    -0.819616548526E+02    0.33846E-03   -0.51551E-01  2964   0.176E+00    0.440E-02
DAV:   2    -0.819625082656E+02   -0.85341E-03   -0.88097E-03  3920   0.500E-01    0.561E-02
DAV:   3    -0.819625108068E+02   -0.25412E-05   -0.45779E-04  2128   0.287E-01
  24 F= -.90076319E+02 E0= -.90061451E+02  d E =-.475818E-03  mag=     0.0000
