 vasp.6.3.2 27Jun22 (build Aug 17 2022 15:43:34) complex                        
  
 executed on           tv2STDVTST date 2025.01.21  16:10:25
 running   20 mpi-ranks, with    1 threads/rank
 distrk:  each k-point on   20 cores,    1 groups
 distr:  one band on NCORE=   5 cores,    4 groups


--------------------------------------------------------------------------------------------------------


 -----------------------------------------------------------------------------
|                                                                             |
|           W    W    AA    RRRRR   N    N  II  N    N   GGGG   !!!           |
|           W    W   A  A   R    R  NN   N  II  NN   N  G    G  !!!           |
|           W    W  A    A  R    R  N N  N  II  N N  N  G       !!!           |
|           W WW W  AAAAAA  RRRRR   N  N N  II  N  N N  G  GGG   !            |
|           WW  WW  A    A  R   R   N   NN  II  N   NN  G    G                |
|           W    W  A    A  R    R  N    N  II  N    N   GGGG   !!!           |
|                                                                             |
|     Found issues when parsing the INCAR file                                |
|     In line 64: Tagname --- R W I G S contains invalid characters.          |
|     Please check if the interpretation in the OUTCAR file is correct.       |
|                                                                             |
 -----------------------------------------------------------------------------

 INCAR:
    = \=\=\=\=\=\=\=\=\=\=\=\=\=\=\=\=\=\=\=\=\=\=\=\=\=\=\=\=\=\=\=\=\=\=\=\=\=\=\=\=\=\=\=\=\=\=\=\=\=\=\=\=\=\=\=\=\=\=\=\=\=\=\=\=\=\=\=\=\=\=\=\=
    = \=\=\=\=\=\=\=\=\=\=\=\=\=\=\=\=\=\=\=\=\=\=\=\=\=\=\=\=\=\=\=\=\=\=\=\=\=\=\=\=\=\=\=\=\=\=\=\=\=\=\=\=\=\=\=\=\=\=\=\=\=\=\=\=\=\=\=\=\=\=\=\=
   ISTART = 0
   ICHARG = 2
   IPIPOL = 3
   IVDW = 11
   IDIPOL = 3
   IVDW = 11
    = \=\=\=\=\=\=\=\=\=\=\=\=\=\=\=\=\=\=\=\=\=\=\=\=\=\=\=\=\=\=\=\=\=\=\=\=\=\=\=\=\=\=\=\=\=\=\=\=\=\=\=\=\=\=\=\=\=\=\=\=\=\=\=\=\=\=\=\=\=\=\=\=
    = \=\=\=\=\=\=\=\=\=\=\=\=\=\=\=\=\=\=\=\=\=\=\=\=\=\=\=\=\=\=\=\=\=\=\=\=\=\=\=\=\=\=\=\=\=\=\=\=\=\=\=\=\=\=\=\=\=\=\=\=\=\=\=\=\=\=\=\=\=\=\=\=
   ISPIN = 2
    = \=\=\=\=\=\=\=\=\=\=\=\=\=\=\=\=\=\=\=\=\=\=\=\=\=\=\=\=\=\=\=\=\=\=\=\=\=\=\=\=\=\=\=\=\=\=\=\=\=\=\=\=\=\=\=\=\=\=\=\=\=\=\=\=\=\=\=\=\=\=\=\=
    = \=\=\=\=\=\=\=\=\=\=\=\=\=\=\=\=\=\=\=\=\=\=\=\=\=\=\=\=\=\=\=\=\=\=\=\=\=\=\=\=\=\=\=\=\=\=\=\=\=\=\=\=\=\=\=\=\=\=\=\=\=\=\=\=\=\=\=\=\=\=\=\=
   ENCUT = 400
   PREC = Normal
   EDIFF = 2E-04
   GGA = PE
   ISMEAR = 1
   SIGMA = 0.2
   LREAL = .FALSE.
    = \=\=\=\=\=\=\=\=\=\=\=\=\=\=\=\=\=\=\=\=\=\=\=\=\=\=\=\=\=\=\=\=\=\=\=\=\=\=\=\=\=\=\=\=\=\=\=\=\=\=\=\=\=\=\=\=\=\=\=\=\=\=\=\=\=\=\=\=\=\=\=\=
    = \=\=\=\=\=\=\=\=\=\=\=\=\=\=\=\=\=\=\=\=\=\=\=\=\=\=\=\=\=\=\=\=\=\=\=\=\=\=\=\=\=\=\=\=\=\=\=\=\=\=\=\=\=\=\=\=\=\=\=\=\=\=\=\=\=\=\=\=\=\=\=\=
   ISYM = 1
   NSW = 800
   IBRION = 2
   POTIM = 0.5
   ISIF = 2
   EDIFFG = -.03
    = \=\=\=\=\=\=\=\=\=\=\=\=\=\=\=\=\=\=\=\=\=\=\=\=\=\=\=\=\=\=\=\=\=\=\=\=\=\=\=\=\=\=\=\=\=\=\=\=\=\=\=\=\=\=\=\=\=\=\=\=\=\=\=\=\=\=\=\=\=\=\=\=
    = \=\=\=\=\=\=\=\=\=\=\=\=\=\=\=\=\=\=\=\=\=\=\=\=\=\=\=\=\=\=\=\=\=\=\=\=\=\=\=\=\=\=\=\=\=\=\=\=\=\=\=\=\=\=\=\=\=\=\=\=\=\=\=\=\=\=\=\=\=\=\=\=
   NPAR = 4
   LWAVE = .FALSE.
   LCHARG = .FALSE.

 POTCAR:    PAW_PBE Cu 22Jun2005                  
 -----------------------------------------------------------------------------
|                                                                             |
|           W    W    AA    RRRRR   N    N  II  N    N   GGGG   !!!           |
|           W    W   A  A   R    R  NN   N  II  NN   N  G    G  !!!           |
|           W    W  A    A  R    R  N N  N  II  N N  N  G       !!!           |
|           W WW W  AAAAAA  RRRRR   N  N N  II  N  N N  G  GGG   !            |
|           WW  WW  A    A  R   R   N   NN  II  N   NN  G    G                |
|           W    W  A    A  R    R  N    N  II  N    N   GGGG   !!!           |
|                                                                             |
|     You use a magnetic or noncollinear calculation, but did not specify     |
|     the initial magnetic moment with the MAGMOM tag. Note that a            |
|     default of 1 will be used for all atoms. This ferromagnetic setup       |
|     may break the symmetry of the crystal, in particular it may rule        |
|     out finding an antiferromagnetic solution. Thence, we recommend         |
|     setting the initial magnetic moment manually or verifying carefully     |
|     that this magnetic setup is desired.                                    |
|                                                                             |
 -----------------------------------------------------------------------------

 POTCAR:    PAW_PBE Cu 22Jun2005                  
   SHA256 =  0e71e558f37a4e8407882b4609ceaae59938afaad9ced71dfe8490308a0ab630 Cu/POTCAR             
   COPYR  = (c) Copyright 22Jun2005 Georg Kresse                                                    
   COPYR  = This file is part of the software VASP. Any use, copying, and all other rights are regul
   COPYR  = If you do not have a valid VASP license, you may not use, copy or distribute this file. 
   VRHFIN =Cu: d10 p1                                                                               
   LEXCH  = PE                                                                                      
   EATOM  =  1390.9808 eV,  102.2342 Ry                                                             
                                                                                                    
   TITEL  = PAW_PBE Cu 22Jun2005                                                                    
   LULTRA =        F    use ultrasoft PP ?                                                          
   IUNSCR =        1    unscreen: 0-lin 1-nonlin 2-no                                               
   RPACOR =    2.000    partial core radius                                                         
   POMASS =   63.546; ZVAL   =   11.000    mass and valenz                                          
   RCORE  =    2.300    outmost cutoff radius                                                       
   RWIGS  =    2.200; RWIGS  =    1.164    wigner-seitz radius (au A)                               
   ENMAX  =  295.446; ENMIN  =  221.585 eV                                                          
   ICORE  =        3    local potential                                                             
   LCOR   =        T    correct aug charges                                                         
   LPAW   =        T    paw PP                                                                      
   EAUG   =  586.980                                                                                
   DEXC   =    0.000                                                                                
   RMAX   =    2.344    core radius for proj-oper                                                   
   RAUG   =    1.300    factor for augmentation sphere                                              
   RDEP   =    2.302    radius for radial grids                                                     
   RDEPT  =    1.771    core radius for aug-charge                                                  
                                                                                                    
   Atomic configuration                                                                             
    9 entries                                                                                       
     n  l   j            E        occ.                                                              
     1  0  0.50     -8850.2468   2.0000                                                             
     2  0  0.50     -1062.3498   2.0000                                                             
     2  1  1.50      -916.8226   6.0000                                                             
     3  0  0.50      -114.6929   2.0000                                                             
     3  1  1.50       -72.1325   6.0000                                                             
     3  2  2.50        -5.0394  10.0000                                                             
     4  0  0.50        -4.6097   1.0000                                                             
     4  1  0.50        -4.0817   0.0000                                                             
     4  3  2.50        -1.3606   0.0000                                                             
   Description                                                                                      
     l       E           TYP  RCUT    TYP  RCUT                                                     
     2     -5.0393973     23  2.200                                                                 
     2     10.8846608     23  2.200                                                                 
     0     -4.6097109     23  2.200                                                                 
     0      8.2520465     23  2.200                                                                 
     1     -2.7211652     23  2.200                                                                 
     1     21.7055443     23  2.200                                                                 
     3      2.7211652     23  2.300                                                                 
  local pseudopotential read in
  partial core-charges read in
  partial kinetic energy density read in
  atomic valenz-charges read in
  non local Contribution for L=           2  read in
    real space projection operators read in
  non local Contribution for L=           2  read in
    real space projection operators read in
  non local Contribution for L=           0  read in
    real space projection operators read in
  non local Contribution for L=           0  read in
    real space projection operators read in
  non local Contribution for L=           1  read in
    real space projection operators read in
  non local Contribution for L=           1  read in
    real space projection operators read in
    PAW grid and wavefunctions read in
 
   number of l-projection  operators is LMAX  =           6
   number of lm-projection operators is LMMAX =          18
 
 -----------------------------------------------------------------------------
|                                                                             |
|               ----> ADVICE to this user running VASP <----                  |
|                                                                             |
|     You have a (more or less) 'large supercell' and for larger cells it     |
|     might be more efficient to use real-space projection operators.         |
|     Therefore, try LREAL= Auto in the INCAR file.                           |
|     Mind: For very accurate calculation, you might also keep the            |
|     reciprocal projection scheme (i.e. LREAL=.FALSE.).                      |
|                                                                             |
 -----------------------------------------------------------------------------

  PAW_PBE Cu 22Jun2005                  :
 energy of atom  1       EATOM=-1390.9808
 kinetic energy error for atom=    0.0232 (will be added to EATOM!!)
 
 
 POSCAR: FCC Cu
  positions in cartesian coordinates
  velocities in cartesian coordinates
  No initial velocities read in
 exchange correlation table for  LEXCH =        8
   RHO(1)=    0.500       N(1)  =     2000
   RHO(2)=  100.500       N(2)  =     4000

 VTST: version 4.2, (08/11/21)

 CHAIN: initializing optimizer
 
 OPT: Using VASP Conjugate-Gradient optimizer
 CHAIN: Read ICHAIN            0
 
 POSCAR: FCC Cu
  positions in cartesian coordinates
  velocities in cartesian coordinates
  No initial velocities read in
 


--------------------------------------------------------------------------------------------------------


 ion  position               nearest neighbor table
   1  0.000  0.000  0.000-   9 2.57   6 2.57   5 2.57   8 2.57   7 2.57   2 2.57   2 2.57
   2  0.000  0.500  0.000-  10 2.57   5 2.57   6 2.57   7 2.57   8 2.57   1 2.57   1 2.57
   3  0.500  0.000  0.000-  11 2.57   8 2.57   6 2.57   7 2.57   5 2.57   4 2.57   4 2.57
   4  0.500  0.500  0.000-  12 2.57   7 2.57   5 2.57   8 2.57   6 2.57   3 2.57   3 2.57
   5  0.250  0.250  0.060-  13 2.57  10 2.57  12 2.57   9 2.57  11 2.57   2 2.57   4 2.57   1 2.57
                             3 2.57   6 2.57   6 2.57
   6  0.250  0.750  0.060-  14 2.57   9 2.57  11 2.57  10 2.57  12 2.57   1 2.57   3 2.57   2 2.57
                             4 2.57   5 2.57   5 2.57
   7  0.750  0.250  0.060-  15 2.57  12 2.57  11 2.57  10 2.57   4 2.57   9 2.57   3 2.57   2 2.57
                             1 2.57   8 2.57   8 2.57
   8  0.750  0.750  0.060-  16 2.57  11 2.57  12 2.57   9 2.57  10 2.57   3 2.57   4 2.57   1 2.57
                             2 2.57   7 2.57   7 2.57
   9  0.000  0.000  0.120-   1 2.57  17 2.57   6 2.57   5 2.57   8 2.57   7 2.57  14 2.57  13 2.57
                            16 2.57  15 2.57  10 2.57  10 2.57
  10  0.000  0.500  0.120-   2 2.57  18 2.57   5 2.57   6 2.57   7 2.57  13 2.57   8 2.57  14 2.57
                            15 2.57  16 2.57   9 2.57   9 2.57
  11  0.500  0.000  0.120-   3 2.57  19 2.57   8 2.57   6 2.57   7 2.57   5 2.57  16 2.57  14 2.57
                            15 2.57  13 2.57  12 2.57  12 2.57
  12  0.500  0.500  0.120-   4 2.57  20 2.57   7 2.57   5 2.57   8 2.57   6 2.57  15 2.57  13 2.57
                            16 2.57  14 2.57  11 2.57  11 2.57
  13  0.250  0.250  0.180-  21 2.57   5 2.57  18 2.57  20 2.57  17 2.57  19 2.57  10 2.57  12 2.57
                             9 2.57  11 2.57  14 2.57  14 2.57
  14  0.250  0.750  0.180-  22 2.57   6 2.57  17 2.57  19 2.57  18 2.57  20 2.57   9 2.57  11 2.57
                            10 2.57  12 2.57  13 2.57  13 2.57
  15  0.750  0.250  0.180-  23 2.57   7 2.57  20 2.57  19 2.57  12 2.57  18 2.57  11 2.57  17 2.57
                            10 2.57   9 2.57  16 2.57  16 2.57
  16  0.750  0.750  0.180-  24 2.57   8 2.57  19 2.57  20 2.57  11 2.57  17 2.57  12 2.57  18 2.57
                             9 2.57  10 2.57  15 2.57  15 2.57
  17  0.000  0.000  0.240-   9 2.57  14 2.57  22 2.57  13 2.57  21 2.57  16 2.57  24 2.57  15 2.57
                            23 2.57  18 2.57  18 2.57
  18  0.000  0.500  0.240-  10 2.57  13 2.57  21 2.57  14 2.57  22 2.57  15 2.57  23 2.57  16 2.57
                            24 2.57  17 2.57  17 2.57
  19  0.500  0.000  0.240-  11 2.57  16 2.57  14 2.57  24 2.57  22 2.57  15 2.57  13 2.57  23 2.57
                            21 2.57  20 2.57  20 2.57
  20  0.500  0.500  0.240-  12 2.57  15 2.57  13 2.57  23 2.57  21 2.57  16 2.57  14 2.57  24 2.57
                            22 2.57  19 2.57  19 2.57
  21  0.250  0.250  0.300-  13 2.57  18 2.57  20 2.57  17 2.57  19 2.57  22 2.57  22 2.57
  22  0.250  0.750  0.300-  14 2.57  17 2.57  19 2.57  18 2.57  20 2.57  21 2.57  21 2.57
  23  0.750  0.250  0.300-  15 2.57  20 2.57  19 2.57  18 2.57  17 2.57  24 2.57  24 2.57
  24  0.750  0.750  0.300-  16 2.57  19 2.57  20 2.57  17 2.57  18 2.57  23 2.57  23 2.57
 
  LATTYP: Found a simple orthorhombic cell.
 ALAT       =     5.1335954666
 B/A-ratio  =     1.4142135422
 C/A-ratio  =     4.1719286491
  
  Lattice vectors:
  
 A1 = (   0.0000000000,  -5.1335954666,   0.0000000000)
 A2 = (   7.2600002289,   0.0000000000,   0.0000000000)
 A3 = (   0.0000000000,   0.0000000000,  21.4169940000)


Analysis of symmetry for initial positions (statically):
=====================================================================
 Subroutine PRICEL returns following result:
 
  LATTYP: Found a simple orthorhombic cell.
 ALAT       =     2.5667977330
 B/A-ratio  =     1.4142135422
 C/A-ratio  =     8.3438572992
  
  Lattice vectors:
  
 A1 = (   0.0000000000,  -2.5667977330,   0.0000000000)
 A2 = (   3.6300001140,   0.0000000000,   0.0000000000)
 A3 = (   0.0000000000,   0.0000000000,  21.4169940000)
 
   4 primitive cells build up your supercell.
 

 Routine SETGRP: Setting up the symmetry group for a 
 simple orthorhombic supercell.


 Subroutine GETGRP returns: Found  8 space group operations
 (whereof  4 operations were pure point group operations)
 out of a pool of  8 trial point group operations.


The static configuration has the point symmetry C_2v.
 The point group associated with its full space group is D_2h.


Analysis of symmetry for dynamics (positions and initial velocities):
=====================================================================
 Subroutine PRICEL returns following result:
 
  LATTYP: Found a simple orthorhombic cell.
 ALAT       =     2.5667977330
 B/A-ratio  =     1.4142135422
 C/A-ratio  =     8.3438572992
  
  Lattice vectors:
  
 A1 = (   0.0000000000,  -2.5667977330,   0.0000000000)
 A2 = (   3.6300001140,   0.0000000000,   0.0000000000)
 A3 = (   0.0000000000,   0.0000000000,  21.4169940000)
 
   4 primitive cells build up your supercell.
 

 Routine SETGRP: Setting up the symmetry group for a 
 simple orthorhombic supercell.


 Subroutine GETGRP returns: Found  8 space group operations
 (whereof  4 operations were pure point group operations)
 out of a pool of  8 trial point group operations.


The dynamic configuration has the point symmetry C_2v.
 The point group associated with its full space group is D_2h.


Analysis of constrained symmetry for selective dynamics:
=====================================================================
 Subroutine PRICEL returns following result:
 
  LATTYP: Found a simple orthorhombic cell.
 ALAT       =     2.5667977330
 B/A-ratio  =     1.4142135422
 C/A-ratio  =     8.3438572992
  
  Lattice vectors:
  
 A1 = (   0.0000000000,  -2.5667977330,   0.0000000000)
 A2 = (   3.6300001140,   0.0000000000,   0.0000000000)
 A3 = (   0.0000000000,   0.0000000000,  21.4169940000)
 
   4 primitive cells build up your supercell.
 

 Routine SETGRP: Setting up the symmetry group for a 
 simple orthorhombic supercell.


 Subroutine GETGRP returns: Found  4 space group operations
 (whereof  4 operations were pure point group operations)
 out of a pool of  8 trial point group operations.


The constrained configuration has the point symmetry C_2v.


Analysis of structural, dynamic, and magnetic symmetry:
=====================================================================
 Subroutine PRICEL returns following result:
 
  LATTYP: Found a simple orthorhombic cell.
 ALAT       =     2.5667977330
 B/A-ratio  =     1.4142135422
 C/A-ratio  =     8.3438572992
  
  Lattice vectors:
  
 A1 = (   0.0000000000,  -2.5667977330,   0.0000000000)
 A2 = (   3.6300001140,   0.0000000000,   0.0000000000)
 A3 = (   0.0000000000,   0.0000000000,  21.4169940000)
 
   4 primitive cells build up your supercell.
 

 Routine SETGRP: Setting up the symmetry group for a 
 simple orthorhombic supercell.


 Subroutine GETGRP returns: Found  4 space group operations
 (whereof  4 operations were pure point group operations)
 out of a pool of  8 trial point group operations.


The overall configuration has the point symmetry C_2v.


 Subroutine INISYM returns: Found  4 space group operations
 (whereof  4 operations are pure point group operations),
 and found     4 'primitive' translations


----------------------------------------------------------------------------------------

                                     Primitive cell                                     

  volume of cell :     199.5523

  direct lattice vectors                    reciprocal lattice vectors
     0.000000000 -2.566797733  0.000000000     0.000000000 -0.389590495  0.000000000
     3.630000114  0.000000000  0.000000000     0.275482085  0.000000000  0.000000000
     0.000000000  0.000000000 21.416994000     0.000000000  0.000000000  0.046691893

  length of vectors
     2.566797733  3.630000114 21.416994000     0.389590495  0.275482085  0.046691893

  position of ions in fractional coordinates (direct lattice)
     0.000000000  0.000000000  0.000000000
     0.500000000  0.500000000  0.059924321
     0.000000000  0.000000000  0.119848642
     0.500000000  0.500000000  0.179772964
     0.000000000  0.000000000  0.239697285
     0.500000000  0.500000000  0.299621606

  ion indices of the primitive-cell ions
   primitive index   ion index
                 1           1
                 2           6
                 3           9
                 4          14
                 5          17
                 6          22

----------------------------------------------------------------------------------------

 
 
 KPOINTS: Auto-mesh                               

Automatic generation of k-mesh.
 Grid dimensions read from file:
 generate k-points for:    3    3    1

 Generating k-lattice:

  Cartesian coordinates                     Fractional coordinates (reciprocal lattice)
     0.045913681  0.000000000  0.000000000     0.333333333  0.000000000  0.000000000
     0.000000000  0.064931749  0.000000000     0.000000000  0.333333333  0.000000000
     0.000000000  0.000000000  0.046691893     0.000000000  0.000000000  1.000000000

  Length of vectors
     0.045913681  0.064931749  0.046691893

  Shift w.r.t. Gamma in fractional coordinates (k-lattice)
     0.000000000  0.000000000  0.000000000

 
 Subroutine IBZKPT returns following result:
 ===========================================
 
 Found      4 irreducible k-points:
 
 Following reciprocal coordinates:
            Coordinates               Weight
  0.000000  0.000000  0.000000      1.000000
  0.333333  0.000000  0.000000      2.000000
  0.000000  0.333333  0.000000      2.000000
  0.333333  0.333333  0.000000      4.000000
 
 Following cartesian coordinates:
            Coordinates               Weight
  0.000000  0.000000  0.000000      1.000000
  0.045914  0.000000  0.000000      2.000000
  0.000000  0.064932  0.000000      2.000000
  0.045914  0.064932  0.000000      4.000000
 


--------------------------------------------------------------------------------------------------------




 Dimension of arrays:
   k-points           NKPTS =      4   k-points in BZ     NKDIM =      4   number of bands    NBANDS=    172
   number of dos      NEDOS =    301   number of ions     NIONS =     24
   non local maximal  LDIM  =      6   non local SUM 2l+1 LMDIM =     18
   total plane-waves  NPLWV = 108864
   max r-space proj   IRMAX =      1   max aug-charges    IRDMAX=   4150
   dimension x,y,z NGX =    36 NGY =   28 NGZ =  108
   dimension x,y,z NGXF=    72 NGYF=   56 NGZF=  216
   support grid    NGXF=    72 NGYF=   56 NGZF=  216
   ions per type =              24
   NGX,Y,Z   is equivalent  to a cutoff of   8.24,  9.07,  8.38 a.u.
   NGXF,Y,Z  is equivalent  to a cutoff of  16.49, 18.13, 16.77 a.u.

 SYSTEM =  unknown system                          
 POSCAR =  FCC Cu                                  

 Startparameter for this run:
   NWRITE =      2    write-flag & timer
   PREC   = normal    normal or accurate (medium, high low for compatibility)
   ISTART =      0    job   : 0-new  1-cont  2-samecut
   ICHARG =      2    charge: 1-file 2-atom 10-const
   ISPIN  =      2    spin polarized calculation?
   LNONCOLLINEAR =      F non collinear calculations
   LSORBIT =      F    spin-orbit coupling
   INIWAV =      1    electr: 0-lowe 1-rand  2-diag
   LASPH  =      F    aspherical Exc in radial PAW
 Electronic Relaxation 1
   ENCUT  =  400.0 eV  29.40 Ry    5.42 a.u.  11.84  8.37 34.93*2*pi/ulx,y,z
   ENINI  =  400.0     initial cutoff
   ENAUG  =  587.0 eV  augmentation charge cutoff
   NELM   =     60;   NELMIN=  2; NELMDL= -5     # of ELM steps 
   EDIFF  = 0.2E-03   stopping-criterion for ELM
   LREAL  =      F    real-space projection
   NLSPLINE    = F    spline interpolate recip. space projectors
   LCOMPAT=      F    compatible to vasp.4.4
   GGA_COMPAT  = T    GGA compatible to vasp.4.4-vasp.4.6
   LMAXPAW     = -100 max onsite density
   LMAXMIX     =    2 max onsite mixed and CHGCAR
   VOSKOWN=      0    Vosko Wilk Nusair interpolation
   ROPT   =    0.00000
 Ionic relaxation
   EDIFFG = -.3E-01   stopping-criterion for IOM
   NSW    =    800    number of steps for IOM
   NBLOCK =      1;   KBLOCK =    800    inner block; outer block 
   IBRION =      2    ionic relax: 0-MD 1-quasi-New 2-CG
   NFREE  =      1    steps in history (QN), initial steepest desc. (CG)
   ISIF   =      2    stress and relaxation
   IWAVPR =     11    prediction:  0-non 1-charg 2-wave 3-comb
   ISYM   =      1    0-nonsym 1-usesym 2-fastsym
   LCORR  =      T    Harris-Foulkes like correction to forces

   POTIM  = 0.5000    time-step for ionic-motion
   TEIN   =    0.0    initial temperature
   TEBEG  =    0.0;   TEEND  =   0.0 temperature during run
   SMASS  =  -3.00    Nose mass-parameter (am)
   estimated Nose-frequenzy (Omega)   =  0.10E-29 period in steps = 0.13E+47 mass=  -0.120E-26a.u.
   SCALEE = 1.0000    scale energy and forces
   NPACO  =    256;   APACO  = 10.0  distance and # of slots for P.C.
   PSTRESS=    0.0 pullay stress

  Mass of Ions in am
   POMASS =  63.55
  Ionic Valenz
   ZVAL   =  11.00
  Atomic Wigner-Seitz radii
   RWIGS  =  -1.00
  virtual crystal weights 
   VCA    =   1.00
   NELECT =     264.0000    total number of electrons
   NUPDOWN=      -1.0000    fix difference up-down

 DOS related values:
   EMIN   =  10.00;   EMAX   =-10.00  energy-range for DOS
   EFERMI =   0.00
   ISMEAR =     1;   SIGMA  =   0.20  broadening in eV -4-tet -1-fermi 0-gaus

 Electronic relaxation 2 (details)
   IALGO  =     38    algorithm
   LDIAG  =      T    sub-space diagonalisation (order eigenvalues)
   LSUBROT=      F    optimize rotation matrix (better conditioning)
   TURBO    =      0    0=normal 1=particle mesh
   IRESTART =      0    0=no restart 2=restart with 2 vectors
   NREBOOT  =      0    no. of reboots
   NMIN     =      0    reboot dimension
   EREF     =   0.00    reference energy to select bands
   IMIX   =      4    mixing-type and parameters
     AMIX     =   0.40;   BMIX     =  1.00
     AMIX_MAG =   1.60;   BMIX_MAG =  1.00
     AMIN     =   0.10
     WC   =   100.;   INIMIX=   1;  MIXPRE=   1;  MAXMIX= -45

 Intra band minimization:
   WEIMIN = 0.0010     energy-eigenvalue tresh-hold
   EBREAK =  0.29E-06  absolut break condition
   DEPER  =   0.30     relativ break condition  

   TIME   =   0.40     timestep for ELM

  volume/ion in A,a.u.               =      33.26       224.44
  Fermi-wavevector in a.u.,A,eV,Ry     =   1.132150  2.139453 17.439445  1.281763
  Thomas-Fermi vector in A             =   2.268850
 
 Write flags
   LWAVE        =      F    write WAVECAR
   LDOWNSAMPLE  =      F    k-point downsampling of WAVECAR
   LCHARG       =      F    write CHGCAR
   LVTOT        =      F    write LOCPOT, total local potential
   LVHAR        =      F    write LOCPOT, Hartree potential only
   LELF         =      F    write electronic localiz. function (ELF)
   LORBIT       =      0    0 simple, 1 ext, 2 COOP (PROOUT), +10 PAW based schemes


 Dipole corrections
   LMONO  =      F    monopole corrections only (constant potential shift)
   LDIPOL =      F    correct potential (dipole corrections)
   IDIPOL =      3    1-x, 2-y, 3-z, 4-all directions 
   EPSILON=  1.0000000 bulk dielectric constant

 Exchange correlation treatment:
   GGA     =    PE    GGA type
   LEXCH   =     8    internal setting for exchange type
   LIBXC   =     F    Libxc                    
   VOSKOWN =     0    Vosko Wilk Nusair interpolation
   LHFCALC =     F    Hartree Fock is set to
   LHFONE  =     F    Hartree Fock one center treatment
   AEXX    =    0.0000 exact exchange contribution

 Linear response parameters
   LEPSILON=     F    determine dielectric tensor
   LRPA    =     F    only Hartree local field effects (RPA)
   LNABLA  =     F    use nabla operator in PAW spheres
   LVEL    =     F    velocity operator in full k-point grid
   CSHIFT  =0.1000    complex shift for real part using Kramers Kronig
   OMEGAMAX=  -1.0    maximum frequency
   DEG_THRESHOLD= 0.2000000E-02 threshold for treating states as degnerate
   RTIME   =   -0.100 relaxation time in fs
  (WPLASMAI=    0.000 imaginary part of plasma frequency in eV, 0.658/RTIME)
   DFIELD  = 0.0000000 0.0000000 0.0000000 field for delta impulse in time
 
  Optional k-point grid parameters
   LKPOINTS_OPT  =     F    use optional k-point grid
   KPOINTS_OPT_MODE=     1    mode for optional k-point grid
 
 Orbital magnetization related:
   ORBITALMAG=     F  switch on orbital magnetization
   LCHIMAG   =     F  perturbation theory with respect to B field
   DQ        =  0.001000  dq finite difference perturbation B field
   LLRAUG    =     F  two centre corrections for induced B field



--------------------------------------------------------------------------------------------------------


 conjugate gradient relaxation of ions
   using selective dynamics as specified on POSCAR
   WARNING: If single coordinates had been selected the selection of coordinates
            is made according to the corresponding   d i r e c t   coordinates!
            Don't support selection of single cartesian coordinates -- sorry ...
  !
 charge density and potential will be updated during run
 spin polarized calculation
 Variant of blocked Davidson
 Davidson routine will perform the subspace rotation
 perform sub-space diagonalisation
    after iterative eigenvector-optimisation
 modified Broyden-mixing scheme, WC =      100.0
 initial mixing is a Kerker type mixing with AMIX =  0.4000 and BMIX =      1.0000
 Hartree-type preconditioning will be used
 using additional bands           40
 reciprocal scheme for non local part
 use partial core corrections
 calculate Harris-corrections to forces 
   (improved forces if not selfconsistent)
 use gradient corrections 
 use of overlap-Matrix (Vanderbilt PP)
 Methfessel and Paxton  Order N= 1 SIGMA  =   0.20


--------------------------------------------------------------------------------------------------------


  energy-cutoff  :      400.00
  volume of cell :      798.21
      direct lattice vectors                 reciprocal lattice vectors
     7.260000229  0.000000000  0.000000000     0.137741042  0.000000000  0.000000000
     0.000000000  5.133595467  0.000000000     0.000000000  0.194795248  0.000000000
     0.000000000  0.000000000 21.416994000     0.000000000  0.000000000  0.046691893

  length of vectors
     7.260000229  5.133595467 21.416994000     0.137741042  0.194795248  0.046691893


 
 k-points in units of 2pi/SCALE and weight: Auto-mesh                               
   0.00000000  0.00000000  0.00000000       0.111
   0.04591368  0.00000000  0.00000000       0.222
   0.00000000  0.06493175  0.00000000       0.222
   0.04591368  0.06493175  0.00000000       0.444
 
 k-points in reciprocal lattice and weights: Auto-mesh                               
   0.00000000  0.00000000  0.00000000       0.111
   0.33333333  0.00000000  0.00000000       0.222
   0.00000000  0.33333333  0.00000000       0.222
   0.33333333  0.33333333  0.00000000       0.444
 
 position of ions in fractional coordinates (direct lattice) 
   0.00000000  0.00000000  0.00000000
   0.00000000  0.50000000  0.00000000
   0.50000000  0.00000000  0.00000000
   0.50000000  0.50000000  0.00000000
   0.25000000  0.25000000  0.05992432
   0.25000000  0.75000000  0.05992432
   0.75000000  0.25000000  0.05992432
   0.75000000  0.75000000  0.05992432
   0.00000000  0.00000000  0.11984864
   0.00000000  0.50000000  0.11984864
   0.50000000  0.00000000  0.11984864
   0.50000000  0.50000000  0.11984864
   0.25000000  0.25000000  0.17977296
   0.25000000  0.75000000  0.17977296
   0.75000000  0.25000000  0.17977296
   0.75000000  0.75000000  0.17977296
   0.00000000  0.00000000  0.23969728
   0.00000000  0.50000000  0.23969728
   0.50000000  0.00000000  0.23969728
   0.50000000  0.50000000  0.23969728
   0.25000000  0.25000000  0.29962161
   0.25000000  0.75000000  0.29962161
   0.75000000  0.25000000  0.29962161
   0.75000000  0.75000000  0.29962161
 
 position of ions in cartesian coordinates  (Angst):
   0.00000000  0.00000000  0.00000000
   0.00000000  2.56679773  0.00000000
   3.63000011  0.00000000  0.00000000
   3.63000011  2.56679773  0.00000000
   1.81500006  1.28339887  1.28339883
   1.81500006  3.85019660  1.28339883
   5.44500017  1.28339887  1.28339883
   5.44500017  3.85019660  1.28339883
   0.00000000  0.00000000  2.56679766
   0.00000000  2.56679773  2.56679766
   3.63000011  0.00000000  2.56679766
   3.63000011  2.56679773  2.56679766
   1.81500006  1.28339887  3.85019649
   1.81500006  3.85019660  3.85019649
   5.44500017  1.28339887  3.85019649
   5.44500017  3.85019660  3.85019649
   0.00000000  0.00000000  5.13359531
   0.00000000  2.56679773  5.13359531
   3.63000011  0.00000000  5.13359531
   3.63000011  2.56679773  5.13359531
   1.81500006  1.28339887  6.41699414
   1.81500006  3.85019660  6.41699414
   5.44500017  1.28339887  6.41699414
   5.44500017  3.85019660  6.41699414
 


--------------------------------------------------------------------------------------------------------


 k-point   1 :   0.0000 0.0000 0.0000  plane waves:   14539
 k-point   2 :   0.3333 0.0000 0.0000  plane waves:   14518
 k-point   3 :   0.0000 0.3333 0.0000  plane waves:   14455
 k-point   4 :   0.3333 0.3333 0.0000  plane waves:   14501

 maximum and minimum number of plane-waves per node :      2950     2874

 maximum number of plane-waves:     14539
 maximum index in each direction: 
   IXMAX=   11   IYMAX=    8   IZMAX=   34
   IXMIN=  -12   IYMIN=   -8   IZMIN=  -34


 parallel 3D FFT for wavefunctions:
    minimum data exchange during FFTs selected (reduces bandwidth)
 parallel 3D FFT for charge:
    minimum data exchange during FFTs selected (reduces bandwidth)


 total amount of memory used by VASP MPI-rank0    57183. kBytes
=======================================================================

   base      :      30000. kBytes
   nonl-proj :       2784. kBytes
   fftplans  :       2326. kBytes
   grid      :       5451. kBytes
   one-center:        155. kBytes
   wavefun   :      16467. kBytes
 
     INWAV:  cpu time      0.0000: real time      0.0005
 Broyden mixing: mesh for mixing (old mesh)
   NGX = 23   NGY = 17   NGZ = 69
  (NGX  = 72   NGY  = 56   NGZ  =216)
  gives a total of  26979 points

 initial charge density was supplied:
 charge density of overlapping atoms calculated
 number of electron     264.0000000 magnetization      24.0000000
 keeping initial charge density in first step


--------------------------------------------------------------------------------------------------------


 Maximum index for augmentation-charges          309 (set IRDMAX)


--------------------------------------------------------------------------------------------------------


 First call to EWALD:  gamma=   0.191
 Maximum number of real-space cells 3x 5x 1
 Maximum number of reciprocal cells 2x 2x 6

    FEWALD:  cpu time      0.0019: real time      0.0019


--------------------------------------- Iteration      1(   1)  ---------------------------------------


    POTLOK:  cpu time      0.0630: real time      0.0783
    SETDIJ:  cpu time      0.0121: real time      0.0122
     EDDAV:  cpu time      4.0895: real time      4.1243
       DOS:  cpu time      0.0017: real time      0.0017
    --------------------------------------------
      LOOP:  cpu time      4.1663: real time      4.2164

 eigenvalue-minimisations  :  2752
 total energy-change (2. order) : 0.2318730E+04  (-0.9486393E+04)
 number of electron     264.0000000 magnetization      24.0000000
 augmentation part      264.0000000 magnetization      24.0000000

 Free energy of the ion-electron system (eV)
  ---------------------------------------------------
  alpha Z        PSCENC =       527.73745042
  Ewald energy   TEWEN  =     99863.90309816
  -Hartree energ DENC   =   -131883.98201195
  -exchange      EXHF   =         0.00000000
  -V(xc)+E(xc)   XCENC  =      1093.35163844
  PAW double counting   =     29474.33990517   -32014.10235660
  entropy T*S    EENTRO =         0.01670992
  eigenvalues    EBANDS =      1874.48202875
  atomic energy  EATOM  =     33382.98336479
  Solvation  Ediel_sol  =         0.00000000
  ---------------------------------------------------
  free energy    TOTEN  =      2318.72982710 eV

  energy without entropy =     2318.71311718  energy(sigma->0) =     2318.72425713


--------------------------------------------------------------------------------------------------------




--------------------------------------- Iteration      1(   2)  ---------------------------------------


     EDDAV:  cpu time      4.0583: real time      4.0925
       DOS:  cpu time      0.0020: real time      0.0021
    --------------------------------------------
      LOOP:  cpu time      4.0603: real time      4.0945

 eigenvalue-minimisations  :  2752
 total energy-change (2. order) :-0.2104965E+04  (-0.2018092E+04)
 number of electron     264.0000000 magnetization      24.0000000
 augmentation part      264.0000000 magnetization      24.0000000

 Free energy of the ion-electron system (eV)
  ---------------------------------------------------
  alpha Z        PSCENC =       527.73745042
  Ewald energy   TEWEN  =     99863.90309816
  -Hartree energ DENC   =   -131883.98201195
  -exchange      EXHF   =         0.00000000
  -V(xc)+E(xc)   XCENC  =      1093.35163844
  PAW double counting   =     29474.33990517   -32014.10235660
  entropy T*S    EENTRO =        -0.00919482
  eigenvalues    EBANDS =      -230.45749880
  atomic energy  EATOM  =     33382.98336479
  Solvation  Ediel_sol  =         0.00000000
  ---------------------------------------------------
  free energy    TOTEN  =       213.76439482 eV

  energy without entropy =      213.77358964  energy(sigma->0) =      213.76745976


--------------------------------------------------------------------------------------------------------




--------------------------------------- Iteration      1(   3)  ---------------------------------------


     EDDAV:  cpu time      4.0720: real time      4.1052
       DOS:  cpu time      0.0022: real time      0.0022
    --------------------------------------------
      LOOP:  cpu time      4.0742: real time      4.1074

 eigenvalue-minimisations  :  2760
 total energy-change (2. order) :-0.2937703E+03  (-0.2650260E+03)
 number of electron     264.0000000 magnetization      24.0000000
 augmentation part      264.0000000 magnetization      24.0000000

 Free energy of the ion-electron system (eV)
  ---------------------------------------------------
  alpha Z        PSCENC =       527.73745042
  Ewald energy   TEWEN  =     99863.90309816
  -Hartree energ DENC   =   -131883.98201195
  -exchange      EXHF   =         0.00000000
  -V(xc)+E(xc)   XCENC  =      1093.35163844
  PAW double counting   =     29474.33990517   -32014.10235660
  entropy T*S    EENTRO =         0.00147540
  eigenvalues    EBANDS =      -524.23843786
  atomic energy  EATOM  =     33382.98336479
  Solvation  Ediel_sol  =         0.00000000
  ---------------------------------------------------
  free energy    TOTEN  =       -80.00587403 eV

  energy without entropy =      -80.00734943  energy(sigma->0) =      -80.00636583


--------------------------------------------------------------------------------------------------------




--------------------------------------- Iteration      1(   4)  ---------------------------------------


     EDDAV:  cpu time      4.4321: real time      4.4713
       DOS:  cpu time      0.0025: real time      0.0025
    --------------------------------------------
      LOOP:  cpu time      4.4346: real time      4.4738

 eigenvalue-minimisations  :  3104
 total energy-change (2. order) :-0.1650684E+02  (-0.1614611E+02)
 number of electron     264.0000000 magnetization      24.0000000
 augmentation part      264.0000000 magnetization      24.0000000

 Free energy of the ion-electron system (eV)
  ---------------------------------------------------
  alpha Z        PSCENC =       527.73745042
  Ewald energy   TEWEN  =     99863.90309816
  -Hartree energ DENC   =   -131883.98201195
  -exchange      EXHF   =         0.00000000
  -V(xc)+E(xc)   XCENC  =      1093.35163844
  PAW double counting   =     29474.33990517   -32014.10235660
  entropy T*S    EENTRO =         0.00733371
  eigenvalues    EBANDS =      -540.75113408
  atomic energy  EATOM  =     33382.98336479
  Solvation  Ediel_sol  =         0.00000000
  ---------------------------------------------------
  free energy    TOTEN  =       -96.51271194 eV

  energy without entropy =      -96.52004565  energy(sigma->0) =      -96.51515651


--------------------------------------------------------------------------------------------------------




--------------------------------------- Iteration      1(   5)  ---------------------------------------


     EDDAV:  cpu time      4.4776: real time      4.5139
       DOS:  cpu time      0.0023: real time      0.0023
    CHARGE:  cpu time      0.3944: real time      0.3964
    MIXING:  cpu time      0.0070: real time      0.0070
    --------------------------------------------
      LOOP:  cpu time      4.8814: real time      4.9197

 eigenvalue-minimisations  :  3136
 total energy-change (2. order) :-0.3664310E+00  (-0.3654694E+00)
 number of electron     264.0002237 magnetization      21.4561637
 augmentation part      156.8051832 magnetization      21.1275207

 Broyden mixing:
  rms(total) = 0.44448E+01    rms(broyden)= 0.44444E+01
  rms(prec ) = 0.46258E+01
  weight for this iteration     100.00

 Free energy of the ion-electron system (eV)
  ---------------------------------------------------
  alpha Z        PSCENC =       527.73745042
  Ewald energy   TEWEN  =     99863.90309816
  -Hartree energ DENC   =   -131883.98201195
  -exchange      EXHF   =         0.00000000
  -V(xc)+E(xc)   XCENC  =      1093.35163844
  PAW double counting   =     29474.33990517   -32014.10235660
  entropy T*S    EENTRO =         0.00790353
  eigenvalues    EBANDS =      -541.11813491
  atomic energy  EATOM  =     33382.98336479
  Solvation  Ediel_sol  =         0.00000000
  ---------------------------------------------------
  free energy    TOTEN  =       -96.87914295 eV

  energy without entropy =      -96.88704648  energy(sigma->0) =      -96.88177746


--------------------------------------------------------------------------------------------------------




--------------------------------------- Iteration      1(   6)  ---------------------------------------


    POTLOK:  cpu time      0.0644: real time      0.0667
    SETDIJ:  cpu time      0.0117: real time      0.0117
     EDDAV:  cpu time      4.1969: real time      4.2315
       DOS:  cpu time      0.0020: real time      0.0020
    CHARGE:  cpu time      0.3705: real time      0.3722
    MIXING:  cpu time      0.0070: real time      0.0070
    --------------------------------------------
      LOOP:  cpu time      4.6525: real time      4.6910

 eigenvalue-minimisations  :  2912
 total energy-change (2. order) : 0.1942736E+02  (-0.2452923E+02)
 number of electron     264.0002516 magnetization      19.9107289
 augmentation part      176.4844171 magnetization      14.3118915

 Broyden mixing:
  rms(total) = 0.22951E+01    rms(broyden)= 0.22946E+01
  rms(prec ) = 0.24237E+01
  weight for this iteration     100.00

 eigenvalues of (default mixing * dielectric matrix)
  average eigenvalue GAMMA=   0.7905
  0.7905

 Free energy of the ion-electron system (eV)
  ---------------------------------------------------
  alpha Z        PSCENC =       527.73745042
  Ewald energy   TEWEN  =     99863.90309816
  -Hartree energ DENC   =   -131261.32148706
  -exchange      EXHF   =         0.00000000
  -V(xc)+E(xc)   XCENC  =      1067.87433739
  PAW double counting   =     29733.13202547   -32145.83489262
  entropy T*S    EENTRO =        -0.00210855
  eigenvalues    EBANDS =     -1245.92357280
  atomic energy  EATOM  =     33382.98336479
  Solvation  Ediel_sol  =         0.00000000
  ---------------------------------------------------
  free energy    TOTEN  =       -77.45178480 eV

  energy without entropy =      -77.44967625  energy(sigma->0) =      -77.45108195


--------------------------------------------------------------------------------------------------------




--------------------------------------- Iteration      1(   7)  ---------------------------------------


    POTLOK:  cpu time      0.0564: real time      0.0569
    SETDIJ:  cpu time      0.0112: real time      0.0112
     EDDAV:  cpu time      4.2777: real time      4.3130
       DOS:  cpu time      0.0030: real time      0.0030
    CHARGE:  cpu time      0.3777: real time      0.3794
    MIXING:  cpu time      0.0090: real time      0.0090
    --------------------------------------------
      LOOP:  cpu time      4.7349: real time      4.7724

 eigenvalue-minimisations  :  2972
 total energy-change (2. order) : 0.1215824E+02  (-0.6218842E+01)
 number of electron     264.0002414 magnetization      18.2041328
 augmentation part      169.5280448 magnetization      11.9941339

 Broyden mixing:
  rms(total) = 0.10569E+01    rms(broyden)= 0.10567E+01
  rms(prec ) = 0.10822E+01
  weight for this iteration     100.00

 eigenvalues of (default mixing * dielectric matrix)
  average eigenvalue GAMMA=   0.8034
  0.9671  0.6398

 Free energy of the ion-electron system (eV)
  ---------------------------------------------------
  alpha Z        PSCENC =       527.73745042
  Ewald energy   TEWEN  =     99863.90309816
  -Hartree energ DENC   =   -131597.73564508
  -exchange      EXHF   =         0.00000000
  -V(xc)+E(xc)   XCENC  =      1082.25072624
  PAW double counting   =     30364.03612951   -32897.09852317
  entropy T*S    EENTRO =         0.01232651
  eigenvalues    EBANDS =      -791.38246781
  atomic energy  EATOM  =     33382.98336479
  Solvation  Ediel_sol  =         0.00000000
  ---------------------------------------------------
  free energy    TOTEN  =       -65.29354044 eV

  energy without entropy =      -65.30586694  energy(sigma->0) =      -65.29764927


--------------------------------------------------------------------------------------------------------




--------------------------------------- Iteration      1(   8)  ---------------------------------------


    POTLOK:  cpu time      0.0565: real time      0.0578
    SETDIJ:  cpu time      0.0113: real time      0.0113
     EDDAV:  cpu time      4.4869: real time      4.5233
       DOS:  cpu time      0.0021: real time      0.0021
    CHARGE:  cpu time      0.3692: real time      0.3709
    MIXING:  cpu time      0.0068: real time      0.0068
    --------------------------------------------
      LOOP:  cpu time      4.9326: real time      4.9722

 eigenvalue-minimisations  :  3176
 total energy-change (2. order) : 0.2260669E+01  (-0.1613498E+01)
 number of electron     264.0002395 magnetization      16.3990165
 augmentation part      168.5990254 magnetization      10.0852968

 Broyden mixing:
  rms(total) = 0.10226E+01    rms(broyden)= 0.10226E+01
  rms(prec ) = 0.10754E+01
  weight for this iteration     100.00

 eigenvalues of (default mixing * dielectric matrix)
  average eigenvalue GAMMA=   0.7325
  1.1278  0.6509  0.4188

 Free energy of the ion-electron system (eV)
  ---------------------------------------------------
  alpha Z        PSCENC =       527.73745042
  Ewald energy   TEWEN  =     99863.90309816
  -Hartree energ DENC   =   -131640.61868685
  -exchange      EXHF   =         0.00000000
  -V(xc)+E(xc)   XCENC  =      1084.53481821
  PAW double counting   =     30731.06314454   -33292.75961755
  entropy T*S    EENTRO =        -0.00606112
  eigenvalues    EBANDS =      -719.87038202
  atomic energy  EATOM  =     33382.98336479
  Solvation  Ediel_sol  =         0.00000000
  ---------------------------------------------------
  free energy    TOTEN  =       -63.03287142 eV

  energy without entropy =      -63.02681029  energy(sigma->0) =      -63.03085104


--------------------------------------------------------------------------------------------------------




--------------------------------------- Iteration      1(   9)  ---------------------------------------


    POTLOK:  cpu time      0.0573: real time      0.0578
    SETDIJ:  cpu time      0.0113: real time      0.0114
     EDDAV:  cpu time      5.1830: real time      5.2251
       DOS:  cpu time      0.0020: real time      0.0020
    CHARGE:  cpu time      0.3859: real time      0.3879
    MIXING:  cpu time      0.0093: real time      0.0093
    --------------------------------------------
      LOOP:  cpu time      5.6488: real time      5.6935

 eigenvalue-minimisations  :  3800
 total energy-change (2. order) : 0.2236507E+01  (-0.4794011E+00)
 number of electron     264.0002393 magnetization      11.4609707
 augmentation part      168.1877314 magnetization       5.0893366

 Broyden mixing:
  rms(total) = 0.73783E+00    rms(broyden)= 0.73779E+00
  rms(prec ) = 0.74518E+00
  weight for this iteration     100.00

 eigenvalues of (default mixing * dielectric matrix)
  average eigenvalue GAMMA=   1.0902
  2.0784  1.1576  0.7413  0.3834

 Free energy of the ion-electron system (eV)
  ---------------------------------------------------
  alpha Z        PSCENC =       527.73745042
  Ewald energy   TEWEN  =     99863.90309816
  -Hartree energ DENC   =   -131691.66647906
  -exchange      EXHF   =         0.00000000
  -V(xc)+E(xc)   XCENC  =      1084.92411088
  PAW double counting   =     31018.79638624   -33598.74298329
  entropy T*S    EENTRO =         0.00973978
  eigenvalues    EBANDS =      -648.74105251
  atomic energy  EATOM  =     33382.98336479
  Solvation  Ediel_sol  =         0.00000000
  ---------------------------------------------------
  free energy    TOTEN  =       -60.79636459 eV

  energy without entropy =      -60.80610438  energy(sigma->0) =      -60.79961119


--------------------------------------------------------------------------------------------------------




--------------------------------------- Iteration      1(  10)  ---------------------------------------


    POTLOK:  cpu time      0.0588: real time      0.0592
    SETDIJ:  cpu time      0.0115: real time      0.0115
     EDDAV:  cpu time      5.4423: real time      5.4871
       DOS:  cpu time      0.0021: real time      0.0021
    CHARGE:  cpu time      0.3680: real time      0.3698
    MIXING:  cpu time      0.0075: real time      0.0075
    --------------------------------------------
      LOOP:  cpu time      5.8901: real time      5.9372

 eigenvalue-minimisations  :  4020
 total energy-change (2. order) :-0.1118084E-01  (-0.5076517E+00)
 number of electron     264.0002419 magnetization       8.3530740
 augmentation part      169.6366948 magnetization       2.8832238

 Broyden mixing:
  rms(total) = 0.59723E+00    rms(broyden)= 0.59719E+00
  rms(prec ) = 0.62330E+00
  weight for this iteration     100.00

 eigenvalues of (default mixing * dielectric matrix)
  average eigenvalue GAMMA=   1.2230
  3.3767  1.0898  0.6323  0.6323  0.3837

 Free energy of the ion-electron system (eV)
  ---------------------------------------------------
  alpha Z        PSCENC =       527.73745042
  Ewald energy   TEWEN  =     99863.90309816
  -Hartree energ DENC   =   -131678.30891792
  -exchange      EXHF   =         0.00000000
  -V(xc)+E(xc)   XCENC  =      1080.89282142
  PAW double counting   =     31383.37499651   -33967.85416105
  entropy T*S    EENTRO =         0.00796675
  eigenvalues    EBANDS =      -653.54416452
  atomic energy  EATOM  =     33382.98336479
  Solvation  Ediel_sol  =         0.00000000
  ---------------------------------------------------
  free energy    TOTEN  =       -60.80754544 eV

  energy without entropy =      -60.81551219  energy(sigma->0) =      -60.81020102


--------------------------------------------------------------------------------------------------------




--------------------------------------- Iteration      1(  11)  ---------------------------------------


    POTLOK:  cpu time      0.0580: real time      0.0585
    SETDIJ:  cpu time      0.0175: real time      0.0175
     EDDAV:  cpu time      4.5227: real time      4.5593
       DOS:  cpu time      0.0021: real time      0.0021
    CHARGE:  cpu time      0.3757: real time      0.3776
    MIXING:  cpu time      0.0094: real time      0.0094
    --------------------------------------------
      LOOP:  cpu time      4.9852: real time      5.0244

 eigenvalue-minimisations  :  3212
 total energy-change (2. order) :-0.1115452E+01  (-0.2384722E+00)
 number of electron     264.0002420 magnetization       5.6494038
 augmentation part      169.6192659 magnetization       0.4092615

 Broyden mixing:
  rms(total) = 0.45050E+00    rms(broyden)= 0.45046E+00
  rms(prec ) = 0.47029E+00
  weight for this iteration     100.00

 eigenvalues of (default mixing * dielectric matrix)
  average eigenvalue GAMMA=   1.3958
  4.8291  1.1193  0.8184  0.8184  0.3948  0.3948

 Free energy of the ion-electron system (eV)
  ---------------------------------------------------
  alpha Z        PSCENC =       527.73745042
  Ewald energy   TEWEN  =     99863.90309816
  -Hartree energ DENC   =   -131731.73094614
  -exchange      EXHF   =         0.00000000
  -V(xc)+E(xc)   XCENC  =      1079.90476371
  PAW double counting   =     31550.85584718   -34144.88781783
  entropy T*S    EENTRO =         0.01289441
  eigenvalues    EBANDS =      -590.70165203
  atomic energy  EATOM  =     33382.98336479
  Solvation  Ediel_sol  =         0.00000000
  ---------------------------------------------------
  free energy    TOTEN  =       -61.92299733 eV

  energy without entropy =      -61.93589174  energy(sigma->0) =      -61.92729547


--------------------------------------------------------------------------------------------------------




--------------------------------------- Iteration      1(  12)  ---------------------------------------


    POTLOK:  cpu time      0.0566: real time      0.0587
    SETDIJ:  cpu time      0.0112: real time      0.0113
     EDDAV:  cpu time      4.6393: real time      4.6770
       DOS:  cpu time      0.0020: real time      0.0020
    CHARGE:  cpu time      0.3579: real time      0.3594
    MIXING:  cpu time      0.0073: real time      0.0073
    --------------------------------------------
      LOOP:  cpu time      5.0743: real time      5.1157

 eigenvalue-minimisations  :  3320
 total energy-change (2. order) :-0.4043802E+01  (-0.2514857E+00)
 number of electron     264.0002408 magnetization       4.1008748
 augmentation part      168.7592440 magnetization      -0.1468350

 Broyden mixing:
  rms(total) = 0.23256E+00    rms(broyden)= 0.23254E+00
  rms(prec ) = 0.25160E+00
  weight for this iteration     100.00

 eigenvalues of (default mixing * dielectric matrix)
  average eigenvalue GAMMA=   1.5458
  5.9918  1.6708  0.8178  0.8178  0.7332  0.3806  0.4086

 Free energy of the ion-electron system (eV)
  ---------------------------------------------------
  alpha Z        PSCENC =       527.73745042
  Ewald energy   TEWEN  =     99863.90309816
  -Hartree energ DENC   =   -131792.09927264
  -exchange      EXHF   =         0.00000000
  -V(xc)+E(xc)   XCENC  =      1078.59175056
  PAW double counting   =     31543.42248578   -34144.73472057
  entropy T*S    EENTRO =        -0.01300165
  eigenvalues    EBANDS =      -525.75795421
  atomic energy  EATOM  =     33382.98336479
  Solvation  Ediel_sol  =         0.00000000
  ---------------------------------------------------
  free energy    TOTEN  =       -65.96679936 eV

  energy without entropy =      -65.95379772  energy(sigma->0) =      -65.96246548


--------------------------------------------------------------------------------------------------------




--------------------------------------- Iteration      1(  13)  ---------------------------------------


    POTLOK:  cpu time      0.0602: real time      0.0608
    SETDIJ:  cpu time      0.0114: real time      0.0115
     EDDAV:  cpu time      5.3357: real time      5.3788
       DOS:  cpu time      0.0021: real time      0.0021
    CHARGE:  cpu time      0.3767: real time      0.3786
    MIXING:  cpu time      0.0101: real time      0.0101
    --------------------------------------------
      LOOP:  cpu time      5.7963: real time      5.8419

 eigenvalue-minimisations  :  3932
 total energy-change (2. order) :-0.6112605E+01  (-0.3534543E+00)
 number of electron     264.0002401 magnetization       3.3631651
 augmentation part      168.4083478 magnetization       0.3353930

 Broyden mixing:
  rms(total) = 0.21388E+00    rms(broyden)= 0.21385E+00
  rms(prec ) = 0.24848E+00
  weight for this iteration     100.00

 eigenvalues of (default mixing * dielectric matrix)
  average eigenvalue GAMMA=   1.6061
  6.9024  2.1379  0.9706  0.7497  0.7497  0.5581  0.3901  0.3901

 Free energy of the ion-electron system (eV)
  ---------------------------------------------------
  alpha Z        PSCENC =       527.73745042
  Ewald energy   TEWEN  =     99863.90309816
  -Hartree energ DENC   =   -131782.13361099
  -exchange      EXHF   =         0.00000000
  -V(xc)+E(xc)   XCENC  =      1075.02621147
  PAW double counting   =     31305.02443265   -33894.82699560
  entropy T*S    EENTRO =        -0.00994401
  eigenvalues    EBANDS =      -549.78341163
  atomic energy  EATOM  =     33382.98336479
  Solvation  Ediel_sol  =         0.00000000
  ---------------------------------------------------
  free energy    TOTEN  =       -72.07940474 eV

  energy without entropy =      -72.06946073  energy(sigma->0) =      -72.07609007


--------------------------------------------------------------------------------------------------------




--------------------------------------- Iteration      1(  14)  ---------------------------------------


    POTLOK:  cpu time      0.0581: real time      0.0585
    SETDIJ:  cpu time      0.0113: real time      0.0113
     EDDAV:  cpu time      5.2818: real time      5.3244
       DOS:  cpu time      0.0021: real time      0.0021
    CHARGE:  cpu time      0.3742: real time      0.3760
    MIXING:  cpu time      0.0078: real time      0.0078
    --------------------------------------------
      LOOP:  cpu time      5.7352: real time      5.7801

 eigenvalue-minimisations  :  3916
 total energy-change (2. order) :-0.3061552E+01  (-0.1734324E+00)
 number of electron     264.0002401 magnetization       2.2528050
 augmentation part      168.3841357 magnetization      -0.2703524

 Broyden mixing:
  rms(total) = 0.16815E+00    rms(broyden)= 0.16812E+00
  rms(prec ) = 0.19243E+00
  weight for this iteration     100.00

 eigenvalues of (default mixing * dielectric matrix)
  average eigenvalue GAMMA=   1.6982
  8.0536  2.7844  1.0423  0.8197  0.8197  0.6717  0.3955  0.3955  0.3016

 Free energy of the ion-electron system (eV)
  ---------------------------------------------------
  alpha Z        PSCENC =       527.73745042
  Ewald energy   TEWEN  =     99863.90309816
  -Hartree energ DENC   =   -131765.65809881
  -exchange      EXHF   =         0.00000000
  -V(xc)+E(xc)   XCENC  =      1072.92938821
  PAW double counting   =     31201.93082082   -33785.78233566
  entropy T*S    EENTRO =        -0.00861358
  eigenvalues    EBANDS =      -573.17603082
  atomic energy  EATOM  =     33382.98336479
  Solvation  Ediel_sol  =         0.00000000
  ---------------------------------------------------
  free energy    TOTEN  =       -75.14095646 eV

  energy without entropy =      -75.13234288  energy(sigma->0) =      -75.13808526


--------------------------------------------------------------------------------------------------------




--------------------------------------- Iteration      1(  15)  ---------------------------------------


    POTLOK:  cpu time      0.0594: real time      0.0603
    SETDIJ:  cpu time      0.0114: real time      0.0115
     EDDAV:  cpu time      4.4090: real time      4.4447
       DOS:  cpu time      0.0021: real time      0.0021
    CHARGE:  cpu time      0.3794: real time      0.3811
    MIXING:  cpu time      0.0057: real time      0.0057
    --------------------------------------------
      LOOP:  cpu time      4.8670: real time      4.9053

 eigenvalue-minimisations  :  3116
 total energy-change (2. order) :-0.4163645E+01  (-0.4021941E+00)
 number of electron     264.0002406 magnetization       1.9604453
 augmentation part      168.6758909 magnetization       0.4997392

 Broyden mixing:
  rms(total) = 0.95275E-01    rms(broyden)= 0.95173E-01
  rms(prec ) = 0.10410E+00
  weight for this iteration     100.00

 eigenvalues of (default mixing * dielectric matrix)
  average eigenvalue GAMMA=   1.6700
  8.4316  3.1198  0.9905  0.8711  0.8711  0.7611  0.5908  0.3906  0.3906  0.2832

 Free energy of the ion-electron system (eV)
  ---------------------------------------------------
  alpha Z        PSCENC =       527.73745042
  Ewald energy   TEWEN  =     99863.90309816
  -Hartree energ DENC   =   -131716.47225549
  -exchange      EXHF   =         0.00000000
  -V(xc)+E(xc)   XCENC  =      1069.65667044
  PAW double counting   =     31052.39587495   -33625.91791452
  entropy T*S    EENTRO =        -0.04253633
  eigenvalues    EBANDS =      -633.54835418
  atomic energy  EATOM  =     33382.98336479
  Solvation  Ediel_sol  =         0.00000000
  ---------------------------------------------------
  free energy    TOTEN  =       -79.30460175 eV

  energy without entropy =      -79.26206542  energy(sigma->0) =      -79.29042298


--------------------------------------------------------------------------------------------------------




--------------------------------------- Iteration      1(  16)  ---------------------------------------


    POTLOK:  cpu time      0.0570: real time      0.0599
    SETDIJ:  cpu time      0.0113: real time      0.0113
     EDDAV:  cpu time      4.3948: real time      4.4310
       DOS:  cpu time      0.0050: real time      0.0050
    CHARGE:  cpu time      0.3783: real time      0.3800
    MIXING:  cpu time      0.0133: real time      0.0133
    --------------------------------------------
      LOOP:  cpu time      4.8596: real time      4.9005

 eigenvalue-minimisations  :  3092
 total energy-change (2. order) :-0.8035591E+00  (-0.8512205E-01)
 number of electron     264.0002409 magnetization       1.5436224
 augmentation part      168.7802459 magnetization       0.5664164

 Broyden mixing:
  rms(total) = 0.86451E-01    rms(broyden)= 0.86403E-01
  rms(prec ) = 0.94454E-01
  weight for this iteration     100.00

 eigenvalues of (default mixing * dielectric matrix)
  average eigenvalue GAMMA=   1.7329
  9.2034  3.4304  1.1921  0.9976  0.9976  0.7643  0.7643  0.6508  0.3898  0.3898
  0.2818

 Free energy of the ion-electron system (eV)
  ---------------------------------------------------
  alpha Z        PSCENC =       527.73745042
  Ewald energy   TEWEN  =     99863.90309816
  -Hartree energ DENC   =   -131693.04257560
  -exchange      EXHF   =         0.00000000
  -V(xc)+E(xc)   XCENC  =      1069.13366285
  PAW double counting   =     31036.19924750   -33608.85181419
  entropy T*S    EENTRO =        -0.03915754
  eigenvalues    EBANDS =      -658.13143723
  atomic energy  EATOM  =     33382.98336479
  Solvation  Ediel_sol  =         0.00000000
  ---------------------------------------------------
  free energy    TOTEN  =       -80.10816083 eV

  energy without entropy =      -80.06900329  energy(sigma->0) =      -80.09510832


--------------------------------------------------------------------------------------------------------




--------------------------------------- Iteration      1(  17)  ---------------------------------------


    POTLOK:  cpu time      0.0584: real time      0.0589
    SETDIJ:  cpu time      0.0112: real time      0.0113
     EDDAV:  cpu time      4.8339: real time      4.8733
       DOS:  cpu time      0.0020: real time      0.0020
    CHARGE:  cpu time      0.3696: real time      0.3715
    MIXING:  cpu time      0.0061: real time      0.0061
    --------------------------------------------
      LOOP:  cpu time      5.2813: real time      5.3231

 eigenvalue-minimisations  :  3508
 total energy-change (2. order) :-0.3212505E+00  (-0.1875013E-01)
 number of electron     264.0002409 magnetization       1.1036582
 augmentation part      168.7326175 magnetization       0.4353739

 Broyden mixing:
  rms(total) = 0.61580E-01    rms(broyden)= 0.61559E-01
  rms(prec ) = 0.68358E-01
  weight for this iteration     100.00

 eigenvalues of (default mixing * dielectric matrix)
  average eigenvalue GAMMA=   1.7585
  9.9857  3.4748  1.7019  1.0370  1.0370  0.8255  0.8255  0.6368  0.5162  0.3887
  0.3887  0.2840

 Free energy of the ion-electron system (eV)
  ---------------------------------------------------
  alpha Z        PSCENC =       527.73745042
  Ewald energy   TEWEN  =     99863.90309816
  -Hartree energ DENC   =   -131676.94756379
  -exchange      EXHF   =         0.00000000
  -V(xc)+E(xc)   XCENC  =      1068.98191135
  PAW double counting   =     31046.02801779   -33620.91054926
  entropy T*S    EENTRO =        -0.04601307
  eigenvalues    EBANDS =      -672.15912777
  atomic energy  EATOM  =     33382.98336479
  Solvation  Ediel_sol  =         0.00000000
  ---------------------------------------------------
  free energy    TOTEN  =       -80.42941138 eV

  energy without entropy =      -80.38339831  energy(sigma->0) =      -80.41407369


--------------------------------------------------------------------------------------------------------




--------------------------------------- Iteration      1(  18)  ---------------------------------------


    POTLOK:  cpu time      0.0566: real time      0.0579
    SETDIJ:  cpu time      0.0112: real time      0.0113
     EDDAV:  cpu time      4.7208: real time      4.7592
       DOS:  cpu time      0.0048: real time      0.0048
    CHARGE:  cpu time      0.3702: real time      0.3721
    MIXING:  cpu time      0.0134: real time      0.0135
    --------------------------------------------
      LOOP:  cpu time      5.1770: real time      5.2187

 eigenvalue-minimisations  :  3400
 total energy-change (2. order) :-0.2814425E+00  (-0.1270805E-01)
 number of electron     264.0002409 magnetization       0.9263794
 augmentation part      168.6931603 magnetization       0.5342516

 Broyden mixing:
  rms(total) = 0.50154E-01    rms(broyden)= 0.50136E-01
  rms(prec ) = 0.56542E-01
  weight for this iteration     100.00

 eigenvalues of (default mixing * dielectric matrix)
  average eigenvalue GAMMA=   1.7116
 10.2733  3.4020  2.1330  0.9736  0.9736  0.9361  0.7937  0.6582  0.6582  0.2845
  0.3933  0.3933  0.3777

 Free energy of the ion-electron system (eV)
  ---------------------------------------------------
  alpha Z        PSCENC =       527.73745042
  Ewald energy   TEWEN  =     99863.90309816
  -Hartree energ DENC   =   -131658.97119659
  -exchange      EXHF   =         0.00000000
  -V(xc)+E(xc)   XCENC  =      1068.67017322
  PAW double counting   =     31082.77306269   -33661.20707570
  entropy T*S    EENTRO =        -0.05253395
  eigenvalues    EBANDS =      -686.54719688
  atomic energy  EATOM  =     33382.98336479
  Solvation  Ediel_sol  =         0.00000000
  ---------------------------------------------------
  free energy    TOTEN  =       -80.71085384 eV

  energy without entropy =      -80.65831988  energy(sigma->0) =      -80.69334252


--------------------------------------------------------------------------------------------------------




--------------------------------------- Iteration      1(  19)  ---------------------------------------


    POTLOK:  cpu time      0.0567: real time      0.0571
    SETDIJ:  cpu time      0.0115: real time      0.0115
     EDDAV:  cpu time      4.7367: real time      4.7751
       DOS:  cpu time      0.0021: real time      0.0021
    CHARGE:  cpu time      0.3790: real time      0.3806
    MIXING:  cpu time      0.0072: real time      0.0072
    --------------------------------------------
      LOOP:  cpu time      5.1930: real time      5.2337

 eigenvalue-minimisations  :  3408
 total energy-change (2. order) :-0.1952493E+00  (-0.3538401E-02)
 number of electron     264.0002409 magnetization       0.6699442
 augmentation part      168.7059552 magnetization       0.3737196

 Broyden mixing:
  rms(total) = 0.35570E-01    rms(broyden)= 0.35562E-01
  rms(prec ) = 0.41518E-01
  weight for this iteration     100.00

 eigenvalues of (default mixing * dielectric matrix)
  average eigenvalue GAMMA=   1.7259
 10.6245  3.5654  2.4313  1.1363  1.0043  1.0043  0.7918  0.7918  0.7849  0.6205
  0.3900  0.3900  0.2834  0.3445

 Free energy of the ion-electron system (eV)
  ---------------------------------------------------
  alpha Z        PSCENC =       527.73745042
  Ewald energy   TEWEN  =     99863.90309816
  -Hartree energ DENC   =   -131647.67912039
  -exchange      EXHF   =         0.00000000
  -V(xc)+E(xc)   XCENC  =      1068.37369726
  PAW double counting   =     31103.00666379   -33682.81310504
  entropy T*S    EENTRO =        -0.05348667
  eigenvalues    EBANDS =      -696.36466542
  atomic energy  EATOM  =     33382.98336479
  Solvation  Ediel_sol  =         0.00000000
  ---------------------------------------------------
  free energy    TOTEN  =       -80.90610309 eV

  energy without entropy =      -80.85261642  energy(sigma->0) =      -80.88827420


--------------------------------------------------------------------------------------------------------




--------------------------------------- Iteration      1(  20)  ---------------------------------------


    POTLOK:  cpu time      0.0591: real time      0.0606
    SETDIJ:  cpu time      0.0127: real time      0.0128
     EDDAV:  cpu time      4.9360: real time      4.9761
       DOS:  cpu time      0.0045: real time      0.0045
    CHARGE:  cpu time      0.3770: real time      0.3789
    MIXING:  cpu time      0.0136: real time      0.0136
    --------------------------------------------
      LOOP:  cpu time      5.4029: real time      5.4465

 eigenvalue-minimisations  :  3600
 total energy-change (2. order) :-0.3386693E+00  (-0.4097569E-02)
 number of electron     264.0002410 magnetization       0.5461448
 augmentation part      168.7426032 magnetization       0.3733656

 Broyden mixing:
  rms(total) = 0.28116E-01    rms(broyden)= 0.28108E-01
  rms(prec ) = 0.31117E-01
  weight for this iteration     100.00

 eigenvalues of (default mixing * dielectric matrix)
  average eigenvalue GAMMA=   1.6902
 10.7090  3.1389  3.1389  1.4936  0.8990  0.8990  0.8891  0.8891  0.6877  0.6877
  0.5131  0.3892  0.3892  0.2834  0.3462

 Free energy of the ion-electron system (eV)
  ---------------------------------------------------
  alpha Z        PSCENC =       527.73745042
  Ewald energy   TEWEN  =     99863.90309816
  -Hartree energ DENC   =   -131628.31735697
  -exchange      EXHF   =         0.00000000
  -V(xc)+E(xc)   XCENC  =      1067.94837847
  PAW double counting   =     31110.91671974   -33691.14356983
  entropy T*S    EENTRO =        -0.05265532
  eigenvalues    EBANDS =      -715.22020183
  atomic energy  EATOM  =     33382.98336479
  Solvation  Ediel_sol  =         0.00000000
  ---------------------------------------------------
  free energy    TOTEN  =       -81.24477237 eV

  energy without entropy =      -81.19211705  energy(sigma->0) =      -81.22722060


--------------------------------------------------------------------------------------------------------




--------------------------------------- Iteration      1(  21)  ---------------------------------------


    POTLOK:  cpu time      0.0567: real time      0.0571
    SETDIJ:  cpu time      0.0112: real time      0.0113
     EDDAV:  cpu time      4.6969: real time      4.7350
       DOS:  cpu time      0.0020: real time      0.0021
    CHARGE:  cpu time      0.3733: real time      0.3752
    MIXING:  cpu time      0.0093: real time      0.0094
    --------------------------------------------
      LOOP:  cpu time      5.1495: real time      5.1900

 eigenvalue-minimisations  :  3380
 total energy-change (2. order) :-0.2292926E+00  (-0.1103726E-02)
 number of electron     264.0002410 magnetization       0.3139699
 augmentation part      168.7394684 magnetization       0.1561661

 Broyden mixing:
  rms(total) = 0.24726E-01    rms(broyden)= 0.24724E-01
  rms(prec ) = 0.27579E-01
  weight for this iteration     100.00

 eigenvalues of (default mixing * dielectric matrix)
  average eigenvalue GAMMA=   1.7254
 10.7962  3.6346  3.6346  1.7940  0.9639  0.9639  0.9081  0.9081  0.7814  0.7814
  0.6227  0.2835  0.4098  0.3897  0.3897  0.3446

 Free energy of the ion-electron system (eV)
  ---------------------------------------------------
  alpha Z        PSCENC =       527.73745042
  Ewald energy   TEWEN  =     99863.90309816
  -Hartree energ DENC   =   -131622.23383090
  -exchange      EXHF   =         0.00000000
  -V(xc)+E(xc)   XCENC  =      1067.70771718
  PAW double counting   =     31116.35411122   -33696.68128692
  entropy T*S    EENTRO =        -0.05327843
  eigenvalues    EBANDS =      -721.19141046
  atomic energy  EATOM  =     33382.98336479
  Solvation  Ediel_sol  =         0.00000000
  ---------------------------------------------------
  free energy    TOTEN  =       -81.47406494 eV

  energy without entropy =      -81.42078651  energy(sigma->0) =      -81.45630547


--------------------------------------------------------------------------------------------------------




--------------------------------------- Iteration      1(  22)  ---------------------------------------


    POTLOK:  cpu time      0.0579: real time      0.0584
    SETDIJ:  cpu time      0.0152: real time      0.0152
     EDDAV:  cpu time      4.9885: real time      5.0289
       DOS:  cpu time      0.0026: real time      0.0026
    CHARGE:  cpu time      0.3858: real time      0.3874
    MIXING:  cpu time      0.0115: real time      0.0115
    --------------------------------------------
      LOOP:  cpu time      5.4615: real time      5.5041

 eigenvalue-minimisations  :  3632
 total energy-change (2. order) :-0.3030184E+00  (-0.1077319E-02)
 number of electron     264.0002409 magnetization       0.0941615
 augmentation part      168.7109074 magnetization      -0.0173532

 Broyden mixing:
  rms(total) = 0.14742E-01    rms(broyden)= 0.14739E-01
  rms(prec ) = 0.18027E-01
  weight for this iteration     100.00

 eigenvalues of (default mixing * dielectric matrix)
  average eigenvalue GAMMA=   1.7919
 11.2023  4.8554  3.6146  2.1581  1.0888  1.0888  1.0309  0.8307  0.8307  0.6716
  0.6716  0.6151  0.2835  0.3897  0.3939  0.3954  0.3416

 Free energy of the ion-electron system (eV)
  ---------------------------------------------------
  alpha Z        PSCENC =       527.73745042
  Ewald energy   TEWEN  =     99863.90309816
  -Hartree energ DENC   =   -131611.90504339
  -exchange      EXHF   =         0.00000000
  -V(xc)+E(xc)   XCENC  =      1067.42407269
  PAW double counting   =     31122.49567104   -33703.12657326
  entropy T*S    EENTRO =        -0.05440183
  eigenvalues    EBANDS =      -731.23472196
  atomic energy  EATOM  =     33382.98336479
  Solvation  Ediel_sol  =         0.00000000
  ---------------------------------------------------
  free energy    TOTEN  =       -81.77708334 eV

  energy without entropy =      -81.72268151  energy(sigma->0) =      -81.75894940


--------------------------------------------------------------------------------------------------------




--------------------------------------- Iteration      1(  23)  ---------------------------------------


    POTLOK:  cpu time      0.0585: real time      0.0590
    SETDIJ:  cpu time      0.0115: real time      0.0115
     EDDAV:  cpu time      5.1806: real time      5.2229
       DOS:  cpu time      0.0023: real time      0.0023
    CHARGE:  cpu time      0.3720: real time      0.3736
    MIXING:  cpu time      0.0092: real time      0.0093
    --------------------------------------------
      LOOP:  cpu time      5.6341: real time      5.6785

 eigenvalue-minimisations  :  3832
 total energy-change (2. order) :-0.8170609E-01  (-0.8637527E-03)
 number of electron     264.0002410 magnetization       0.1519744
 augmentation part      168.7229030 magnetization       0.1499354

 Broyden mixing:
  rms(total) = 0.13186E-01    rms(broyden)= 0.13178E-01
  rms(prec ) = 0.15441E-01
  weight for this iteration     100.00

 eigenvalues of (default mixing * dielectric matrix)
  average eigenvalue GAMMA=   1.7743
 11.0981  4.5142  4.5142  2.3213  1.2475  1.0052  1.0052  0.8209  0.8209  0.7824
  0.7824  0.6481  0.5721  0.2835  0.3893  0.3893  0.3995  0.3425

 Free energy of the ion-electron system (eV)
  ---------------------------------------------------
  alpha Z        PSCENC =       527.73745042
  Ewald energy   TEWEN  =     99863.90309816
  -Hartree energ DENC   =   -131597.74371248
  -exchange      EXHF   =         0.00000000
  -V(xc)+E(xc)   XCENC  =      1067.33926097
  PAW double counting   =     31114.74470253   -33695.17510377
  entropy T*S    EENTRO =        -0.05264309
  eigenvalues    EBANDS =      -745.59520695
  atomic energy  EATOM  =     33382.98336479
  Solvation  Ediel_sol  =         0.00000000
  ---------------------------------------------------
  free energy    TOTEN  =       -81.85878942 eV

  energy without entropy =      -81.80614633  energy(sigma->0) =      -81.84124173


--------------------------------------------------------------------------------------------------------




--------------------------------------- Iteration      1(  24)  ---------------------------------------


    POTLOK:  cpu time      0.0564: real time      0.0577
    SETDIJ:  cpu time      0.0134: real time      0.0134
     EDDAV:  cpu time      4.7473: real time      4.7861
       DOS:  cpu time      0.0022: real time      0.0022
    CHARGE:  cpu time      0.3730: real time      0.3746
    MIXING:  cpu time      0.0069: real time      0.0069
    --------------------------------------------
      LOOP:  cpu time      5.1992: real time      5.2408

 eigenvalue-minimisations  :  3432
 total energy-change (2. order) :-0.2760100E-01  (-0.2252360E-03)
 number of electron     264.0002409 magnetization       0.0282217
 augmentation part      168.7227838 magnetization      -0.0197417

 Broyden mixing:
  rms(total) = 0.71219E-02    rms(broyden)= 0.71200E-02
  rms(prec ) = 0.79940E-02
  weight for this iteration     100.00

 eigenvalues of (default mixing * dielectric matrix)
  average eigenvalue GAMMA=   1.8154
 11.3238  6.0474  3.9082  2.4465  1.7036  1.0884  0.9839  0.9839  0.8119  0.8119
  0.7167  0.7167  0.6482  0.5007  0.2835  0.3888  0.3888  0.3982  0.3423

 Free energy of the ion-electron system (eV)
  ---------------------------------------------------
  alpha Z        PSCENC =       527.73745042
  Ewald energy   TEWEN  =     99863.90309816
  -Hartree energ DENC   =   -131603.23168820
  -exchange      EXHF   =         0.00000000
  -V(xc)+E(xc)   XCENC  =      1067.30938887
  PAW double counting   =     31112.92875077   -33692.82554682
  entropy T*S    EENTRO =        -0.05357808
  eigenvalues    EBANDS =      -740.63763034
  atomic energy  EATOM  =     33382.98336479
  Solvation  Ediel_sol  =         0.00000000
[...]
    164       7.0065      0.00000
    165       7.1140      0.00000
    166       7.1778      0.00000
    167       7.2973      0.00000
    168       7.3251      0.00000
    169       7.5187      0.00000
    170       7.5214      0.00000
    171       7.8878      0.00000
    172       8.0454      0.00000


--------------------------------------------------------------------------------------------------------


 soft charge-density along one line, spin component           1
         0         1         2         3         4         5         6         7         8         9
 total charge-density along one line
 
 soft charge-density along one line, spin component           2
         0         1         2         3         4         5         6         7         8         9
 total charge-density along one line
 
 pseudopotential strength for first ion, spin component:           1
 -8.103  -0.000  -0.000   0.000   0.000  -0.802   0.000   0.000
 -0.000  -8.094  -0.000   0.000   0.000   0.000  -0.810   0.000
 -0.000  -0.000  -8.082  -0.000  -0.026   0.000   0.000  -0.821
  0.000   0.000  -0.000  -8.067  -0.000  -0.000  -0.000   0.000
  0.000   0.000  -0.026  -0.000  -8.104  -0.000  -0.000   0.020
 -0.802   0.000   0.000  -0.000  -0.000   7.559  -0.000  -0.000
  0.000  -0.810   0.000  -0.000  -0.000  -0.000   7.567  -0.000
  0.000   0.000  -0.821   0.000   0.020  -0.000  -0.000   7.574
 -0.000  -0.000   0.000  -0.832   0.000   0.000   0.000  -0.000
 -0.000  -0.000   0.020   0.000  -0.801   0.000   0.000  -0.014
 -0.000   0.000  -0.005   0.000  -0.006  -0.000   0.000   0.003
 -0.000   0.000  -0.010   0.000  -0.010  -0.000   0.000   0.006
  0.000  -0.016  -0.000  -0.000  -0.000  -0.000   0.012   0.000
 -0.000   0.000  -0.017   0.000   0.001  -0.000  -0.000   0.011
  0.000  -0.000  -0.000  -0.014   0.000  -0.000  -0.000   0.000
  0.000  -0.018  -0.000   0.000  -0.000   0.000   0.013  -0.000
  0.000   0.000  -0.018   0.000   0.001  -0.000   0.000   0.012
  0.000   0.000  -0.000  -0.015   0.000   0.000  -0.000  -0.000
 pseudopotential strength for first ion, spin component:           2
 -8.103  -0.000  -0.000   0.000  -0.000  -0.802   0.000   0.000
 -0.000  -8.094  -0.000   0.000   0.000   0.000  -0.810   0.000
 -0.000  -0.000  -8.082  -0.000  -0.026   0.000   0.000  -0.821
  0.000   0.000  -0.000  -8.067  -0.000  -0.000  -0.000   0.000
 -0.000   0.000  -0.026  -0.000  -8.104   0.000  -0.000   0.020
 -0.802   0.000   0.000  -0.000   0.000   7.559  -0.000  -0.000
  0.000  -0.810   0.000  -0.000  -0.000  -0.000   7.567  -0.000
  0.000   0.000  -0.821   0.000   0.020  -0.000  -0.000   7.574
 -0.000  -0.000   0.000  -0.832   0.000   0.000   0.000  -0.000
  0.000  -0.000   0.020   0.000  -0.801  -0.000   0.000  -0.014
 -0.000   0.000  -0.005   0.000  -0.006  -0.000   0.000   0.003
 -0.000   0.000  -0.010   0.000  -0.010  -0.000   0.000   0.006
  0.000  -0.016  -0.000  -0.000  -0.000  -0.000   0.012   0.000
 -0.000   0.000  -0.017   0.000   0.001  -0.000  -0.000   0.011
  0.000  -0.000  -0.000  -0.014   0.000  -0.000  -0.000   0.000
  0.000  -0.018  -0.000   0.000  -0.000   0.000   0.013  -0.000
  0.000   0.000  -0.018   0.000   0.001  -0.000   0.000   0.012
  0.000   0.000  -0.000  -0.015   0.000   0.000  -0.000  -0.000
 total augmentation occupancy for first ion, spin component:           1
  1.920   0.000   0.000   0.000   0.000  -0.018   0.000   0.000   0.000   0.000   0.000   0.000  -0.000  -0.000   0.000  -0.000
  0.000   1.940   0.000  -0.000   0.000   0.000  -0.029   0.000  -0.000   0.000   0.000   0.000   0.022   0.000   0.000  -0.021
  0.000   0.000   1.933   0.000  -0.012   0.000   0.000  -0.022   0.000   0.010   0.005   0.010   0.000   0.055  -0.000   0.000
  0.000  -0.000   0.000   1.937   0.000   0.000  -0.000   0.000  -0.028   0.000   0.000   0.000   0.000  -0.000   0.064   0.000
  0.000   0.000  -0.012   0.000   1.917   0.000   0.000   0.009   0.000  -0.018  -0.013   0.006  -0.000   0.026   0.000  -0.000
 -0.018   0.000   0.000   0.000   0.000   0.008   0.000   0.000   0.000  -0.000   0.000  -0.000   0.000   0.000   0.000   0.000
  0.000  -0.029   0.000  -0.000   0.000   0.000   0.009   0.000  -0.000   0.000   0.000   0.000   0.019   0.000   0.000  -0.001
  0.000   0.000  -0.022   0.000   0.009  -0.000   0.000   0.009   0.000   0.002  -0.020  -0.000   0.000   0.018   0.000   0.000
  0.000  -0.000   0.000  -0.028   0.000   0.000   0.000  -0.000   0.010   0.000   0.000   0.000  -0.000   0.000   0.026  -0.000
 -0.000   0.000   0.010   0.000  -0.018   0.000   0.000   0.002   0.000   0.010  -0.023   0.001   0.000   0.003   0.000   0.000
  0.000   0.000   0.005   0.000  -0.013   0.000   0.000  -0.020   0.000  -0.023   1.595  -0.113   0.000   0.190  -0.000   0.000
  0.000   0.000   0.010   0.000   0.006   0.000   0.000  -0.000   0.000   0.001  -0.113   0.013   0.000  -0.025  -0.000   0.000
 -0.000   0.022   0.000   0.000  -0.000   0.000   0.019   0.000   0.000   0.000   0.000   0.000   0.175   0.000   0.000  -0.010
  0.000   0.000   0.055   0.000   0.026   0.000   0.000   0.018   0.000   0.003   0.190  -0.025  -0.000   0.101   0.000   0.000
  0.000   0.000  -0.000   0.064   0.000   0.000   0.000   0.000   0.026   0.000  -0.000   0.000   0.000  -0.000   0.131  -0.000
 -0.000  -0.021   0.000   0.000   0.000   0.000  -0.001   0.000   0.000  -0.000  -0.000  -0.000  -0.010   0.000  -0.000   0.001
  0.000  -0.000  -0.025  -0.000  -0.001   0.000  -0.000  -0.001   0.000  -0.000  -0.026   0.003   0.000  -0.008   0.000   0.000
  0.000   0.000   0.000  -0.024   0.000   0.000  -0.000   0.000  -0.001   0.000   0.000   0.000  -0.000   0.000  -0.008  -0.000
 total augmentation occupancy for first ion, spin component:           2
  0.000   0.000  -0.000   0.000   0.000   0.000   0.000  -0.000   0.000   0.000   0.000   0.000   0.000   0.000   0.000   0.000
  0.000   0.000   0.000  -0.000   0.000   0.000   0.000   0.000  -0.000   0.000   0.000   0.000  -0.000   0.000   0.000  -0.000
 -0.000   0.000   0.000   0.000   0.000   0.000   0.000   0.000   0.000  -0.000   0.000   0.000   0.000  -0.000   0.000   0.000
  0.000  -0.000   0.000   0.000   0.000  -0.000   0.000   0.000   0.000   0.000   0.000   0.000   0.000   0.000  -0.000   0.000
  0.000   0.000   0.000   0.000   0.000   0.000   0.000   0.000   0.000   0.000   0.000   0.000   0.000   0.000   0.000   0.000
  0.000   0.000   0.000   0.000   0.000   0.000   0.000   0.000   0.000   0.000   0.000   0.000   0.000   0.000   0.000   0.000
  0.000   0.000   0.000   0.000   0.000   0.000   0.000   0.000  -0.000   0.000   0.000   0.000   0.000   0.000   0.000  -0.000
 -0.000   0.000   0.000   0.000   0.000   0.000   0.000  -0.000   0.000   0.000   0.000  -0.000   0.000   0.000   0.000   0.000
  0.000  -0.000   0.000   0.000   0.000   0.000  -0.000  -0.000  -0.000   0.000   0.000   0.000  -0.000   0.000  -0.000   0.000
  0.000   0.000  -0.000   0.000   0.000   0.000   0.000   0.000   0.000   0.000   0.000  -0.000   0.000   0.000   0.000   0.000
  0.000   0.000   0.000   0.000   0.000   0.000   0.000   0.000   0.000   0.000   0.000  -0.000   0.000  -0.000  -0.000   0.000
  0.000   0.000   0.000   0.000   0.000   0.000   0.000  -0.000   0.000  -0.000  -0.000   0.000   0.000   0.000   0.000   0.000
  0.000  -0.000   0.000   0.000   0.000   0.000   0.000   0.000  -0.000   0.000   0.000   0.000   0.000   0.000   0.000  -0.000
  0.000   0.000  -0.000   0.000   0.000   0.000   0.000   0.000   0.000   0.000  -0.000   0.000   0.000   0.000   0.000   0.000
  0.000   0.000   0.000  -0.000   0.000   0.000   0.000   0.000  -0.000  -0.000  -0.000   0.000   0.000   0.000   0.000  -0.000
  0.000  -0.000   0.000   0.000   0.000   0.000  -0.000   0.000   0.000   0.000   0.000   0.000  -0.000   0.000  -0.000   0.000
  0.000   0.000  -0.000   0.000  -0.000   0.000   0.000  -0.000   0.000  -0.000   0.000  -0.000   0.000   0.000   0.000   0.000
  0.000   0.000   0.000   0.000   0.000   0.000   0.000   0.000   0.000   0.000   0.000   0.000   0.000   0.000   0.000   0.000


------------------------ aborting loop because EDIFF is reached ----------------------------------------



 DIPCOR: dipole corrections for dipol
 direction  3 min pos   145,
 dipolmoment           0.000000      0.000000      0.009820 electrons x Angstroem
 Tr[quadrupol]     -1954.456753

 energy correction for charged system         0.000000 eV
 dipol+quadrupol energy correction            0.000011 eV
 added-field ion interaction          0.000000 eV  (added to PSCEN)

 
  *************** adding dipol energy to TOTEN NOW **************** 
    CHARGE:  cpu time      0.3748: real time      0.3765
    FORLOC:  cpu time      0.0112: real time      0.0112
    FORNL :  cpu time      3.7052: real time      3.7203
    STRESS:  cpu time      2.8513: real time      2.8690
    FORCOR:  cpu time      0.0630: real time      0.0633
    FORHAR:  cpu time      0.0112: real time      0.0112
    MIXING:  cpu time      0.0017: real time      0.0017
    OFIELD:  cpu time      0.0000: real time      0.0000

 ---------------------------------------------------------------------------------------------

         DFTD3 V3.0 Rev 1        
 Edisp (eV)   -8.11382

 E6    (eV) :    -3.1536
 E8    (eV) :    -4.9602
 % E8        : 61.13
    FORVDW:  cpu time      0.0837: real time      0.0841

  FORCE on cell =-STRESS in cart. coord.  units (eV):
  Direction    XX          YY          ZZ          XY          YZ          ZX
  --------------------------------------------------------------------------------------
  Alpha Z   527.73745   527.73745   527.73745
  Ewald  120252.26799120934.35865************    -0.00000    -0.00000     0.00000
  Hartree129159.62280129625.88196************    -0.00000    -0.00000    -0.00000
  E(xc)   -1541.65804 -1540.90970 -1543.70280    -0.00000     0.00000    -0.00000
  Local  ************************258455.97014    -0.00000     0.00000    -0.00000
  n-local  -528.11831  -522.26221  -529.74611     1.25173     0.00000    -0.00000
  augment  2269.60495  2266.63496  2273.16161    -0.00000     0.00000    -0.00000
  Kinetic  2151.95539  2149.91865  2160.87544     1.39628    -0.00000    -0.00000
  Fock        0.00000     0.00000     0.00000     0.00000     0.00000     0.00000
  vdW        -9.92788   -10.16289    -5.70311    -0.00000     0.00000    -0.00000
  -------------------------------------------------------------------------------------
  Total     -15.85860   -12.82473    -3.42127     0.00000     0.00000     0.00000
  in kB     -31.83161   -25.74198    -6.86722     0.00000     0.00000     0.00000
  external pressure =      -21.48 kB  Pullay stress =        0.00 kB


 VOLUME and BASIS-vectors are now :
 -----------------------------------------------------------------------------
  energy-cutoff  :      400.00
  volume of cell :      798.21
      direct lattice vectors                 reciprocal lattice vectors
     7.260000229  0.000000000  0.000000000     0.137741042  0.000000000  0.000000000
     0.000000000  5.133595467  0.000000000     0.000000000  0.194795248  0.000000000
     0.000000000  0.000000000 21.416994000     0.000000000  0.000000000  0.046691893

  length of vectors
     7.260000229  5.133595467 21.416994000     0.137741042  0.194795248  0.046691893


 FORCES acting on ions
    electron-ion (+dipol)            ewald-force                    non-local-force                 convergence-correction
 -----------------------------------------------------------------------------------------------
   -.107E-12 0.197E-11 0.359E+04   -.302E-06 -.144E-06 -.359E+04   0.000E+00 0.000E+00 -.543E+01   0.106E-09 0.638E-10 -.649E-02
   -.113E-12 0.116E-05 0.359E+04   -.302E-06 0.195E-06 -.359E+04   -.662E-23 0.993E-23 -.543E+01   0.106E-09 -.117E-09 -.649E-02
   0.183E-05 0.136E-11 0.359E+04   0.162E-06 -.144E-06 -.359E+04   0.331E-23 0.132E-22 -.543E+01   -.258E-09 0.641E-10 -.649E-02
   0.183E-05 0.116E-05 0.359E+04   0.162E-06 0.195E-06 -.359E+04   0.170E-22 0.662E-23 -.543E+01   -.258E-09 -.116E-09 -.649E-02
   0.840E-06 -.132E-05 0.233E+04   -.165E-06 -.235E-06 -.233E+04   0.132E-22 0.000E+00 -.162E+00   0.145E-09 0.458E-10 0.245E-01
   0.840E-06 -.188E-06 0.233E+04   -.165E-06 0.130E-06 -.233E+04   -.132E-22 -.662E-23 -.162E+00   0.145E-09 0.636E-10 0.245E-01
   0.252E-05 -.132E-05 0.233E+04   0.446E-06 -.235E-06 -.233E+04   -.265E-22 -.662E-23 -.162E+00   0.149E-09 0.472E-10 0.245E-01
   0.252E-05 -.188E-06 0.233E+04   0.446E-06 0.130E-06 -.233E+04   -.364E-22 -.993E-23 -.162E+00   0.150E-09 0.639E-10 0.245E-01
   -.109E-12 0.200E-12 0.758E+03   -.492E-06 -.145E-06 -.757E+03   0.000E+00 -.662E-23 -.107E+01   -.120E-09 0.381E-10 -.172E+00
   -.110E-12 0.113E-05 0.758E+03   -.492E-06 0.256E-06 -.757E+03   -.662E-23 0.579E-23 -.107E+01   -.120E-09 -.368E-10 -.172E+00
   0.169E-05 0.302E-13 0.758E+03   0.198E-06 -.145E-06 -.757E+03   -.331E-23 -.265E-22 -.107E+01   -.265E-09 0.390E-10 -.172E+00
   0.169E-05 0.113E-05 0.758E+03   0.198E-06 0.256E-06 -.757E+03   0.103E-22 0.993E-23 -.107E+01   -.265E-09 -.374E-10 -.172E+00
   0.852E-06 -.132E-05 -.730E+03   -.202E-06 -.256E-06 0.729E+03   0.000E+00 0.000E+00 0.121E+01   -.107E-09 0.457E-10 0.143E+00
   0.852E-06 -.189E-06 -.730E+03   -.202E-06 0.150E-06 0.729E+03   0.000E+00 0.827E-24 0.121E+01   -.107E-09 -.585E-10 0.143E+00
   0.256E-05 -.132E-05 -.730E+03   0.486E-06 -.256E-06 0.729E+03   -.165E-23 0.000E+00 0.121E+01   -.305E-09 0.449E-10 0.143E+00
   0.256E-05 -.189E-06 -.730E+03   0.486E-06 0.150E-06 0.729E+03   0.000E+00 0.993E-23 0.121E+01   -.305E-09 -.609E-10 0.143E+00
   -.141E-12 -.264E-11 -.236E+04   -.459E-06 -.127E-06 0.236E+04   0.000E+00 0.199E-22 -.678E+00   0.257E-09 -.107E-09 -.455E-01
   -.141E-12 0.113E-05 -.236E+04   -.459E-06 0.238E-06 0.236E+04   0.000E+00 0.993E-23 -.678E+00   0.257E-09 0.469E-10 -.455E-01
   0.166E-05 -.397E-11 -.236E+04   0.162E-06 -.127E-06 0.236E+04   0.000E+00 -.662E-23 -.678E+00   0.563E-09 -.106E-09 -.455E-01
   0.166E-05 0.113E-05 -.236E+04   0.162E-06 0.238E-06 0.236E+04   0.000E+00 0.331E-23 -.678E+00   0.563E-09 0.468E-10 -.455E-01
   0.902E-06 -.135E-05 -.359E+04   -.165E-06 -.206E-06 0.358E+04   -.397E-22 0.132E-22 0.563E+01   -.121E-10 -.243E-10 -.105E+00
   0.902E-06 -.192E-06 -.359E+04   -.165E-06 0.142E-06 0.358E+04   0.132E-22 0.662E-23 0.563E+01   -.121E-10 -.466E-10 -.105E+00
   0.271E-05 -.135E-05 -.359E+04   0.330E-06 -.206E-06 0.358E+04   0.199E-22 0.265E-22 0.563E+01   -.526E-10 -.222E-10 -.105E+00
   0.271E-05 -.192E-06 -.359E+04   0.330E-06 0.142E-06 0.358E+04   0.662E-23 -.662E-23 0.563E+01   -.526E-10 -.457E-10 -.105E+00
 -----------------------------------------------------------------------------------------------
   0.311E-04 -.228E-05 0.275E+01   0.471E-13 0.102E-12 0.273E-11   -.505E-22 0.662E-22 -.200E+01   0.202E-09 -.168E-09 -.648E+00
 
 
 POSITION                                       TOTAL-FORCE (eV/Angst)
 -----------------------------------------------------------------------------------
      0.00000      0.00000      0.00000        -0.000000      0.000000      0.433095
      0.00000      2.56680      0.00000        -0.000000      0.000000      0.433095
      3.63000      0.00000      0.00000         0.000000     -0.000000      0.433095
      3.63000      2.56680      0.00000         0.000000     -0.000000      0.433095
      1.81500      1.28340      1.28340         0.000000      0.000000     -0.439467
      1.81500      3.85020      1.28340        -0.000000     -0.000000     -0.439467
      5.44500      1.28340      1.28340        -0.000000      0.000000     -0.439467
      5.44500      3.85020      1.28340         0.000000     -0.000000     -0.439467
     -0.00000      0.00000      2.54102         0.000000     -0.000000      0.006387
      0.00000      2.56680      2.54102         0.000000     -0.000000      0.006387
      3.63000     -0.00000      2.54102         0.000000      0.000000      0.006387
      3.63000      2.56680      2.54102         0.000000      0.000000      0.006387
      1.81500      1.28340      3.75800        -0.000000      0.000000     -0.000488
      1.81500      3.85020      3.75800        -0.000000      0.000000     -0.000488
      5.44500      1.28340      3.75800         0.000000     -0.000000     -0.000488
      5.44500      3.85020      3.75800        -0.000000      0.000000     -0.000488
      0.00000     -0.00000      5.07297        -0.000000      0.000000     -0.003512
      0.00000      2.56680      5.07297         0.000000     -0.000000     -0.003512
      3.63000     -0.00000      5.07297        -0.000000      0.000000     -0.003512
      3.63000      2.56680      5.07297         0.000000     -0.000000     -0.003512
      1.81500      1.28340      6.21847        -0.000000      0.000000      0.003985
      1.81500      3.85020      6.21847         0.000000      0.000000      0.003985
      5.44500      1.28340      6.21847         0.000000      0.000000      0.003985
      5.44500      3.85020      6.21847        -0.000000     -0.000000      0.003985
 -----------------------------------------------------------------------------------
    total drift:                                0.000031     -0.000002      0.109149


--------------------------------------------------------------------------------------------------------



  FREE ENERGIE OF THE ION-ELECTRON SYSTEM (eV)
  ---------------------------------------------------
  free  energy   TOTEN  =       -90.07631928 eV

  energy  without entropy=      -90.03171360  energy(sigma->0) =      -90.06145072
 
 d Force = 0.3768501E-03[-0.118E-03, 0.872E-03]  d Energy = 0.4758181E-03-0.990E-04
 d Force =-0.2352719E+02[-0.235E+02,-0.235E+02]  d Ewald  =-0.2352718E+02-0.323E-06


--------------------------------------------------------------------------------------------------------


    POTLOK:  cpu time      0.0702: real time      0.0706


--------------------------------------------------------------------------------------------------------


 stress matrix after NEB project (eV)
    -15.85860      0.00000      0.00000
      0.00000    -12.82473      0.00000
      0.00000      0.00000     -3.42127
  FORCES: max atom, RMS     0.006387    0.003397
  FORCE total and by dimension    0.016643    0.006387
  Stress total and by dimension   20.680280   15.858601
 Conjugate gradient step on ions:
 trial-energy change:   -0.000476  1 .order   -0.000377   -0.000872    0.000118
  (g-gl).g = 0.740E-03      g.g   = 0.517E-03  gl.gl    = 0.954E-02
 g(Force)  = 0.517E-03   g(Stress)= 0.000E+00 ortho     = 0.118E-05
 gamma     =   0.07758
 trial     =   1.68633
 opt step  =   1.48502  (harmonic =   1.48502) maximal distance =0.00153796
 next E    =   -90.076227   (d E  =  -0.00038)


--------------------------------------------------------------------------------------------------------


  
 reached required accuracy - stopping structural energy minimisation
     LOOP+:  cpu time     20.9659: real time     21.1540
    4ORBIT:  cpu time      0.0000: real time      0.0000

 total amount of memory used by VASP MPI-rank0    57183. kBytes
=======================================================================

   base      :      30000. kBytes
   nonl-proj :       2784. kBytes
   fftplans  :       2326. kBytes
   grid      :       5451. kBytes
   one-center:        155. kBytes
   wavefun   :      16467. kBytes
 
  
  
 General timing and accounting informations for this job:
 ========================================================
  
                  Total CPU time used (sec):      747.654
                            User time (sec):      721.366
                          System time (sec):       26.288
                         Elapsed time (sec):      758.021
  
                   Maximum memory used (kb):      275636.
                   Average memory used (kb):          N/A
  
                          Minor page faults:       544799
                          Major page faults:         6663
                 Voluntary context switches:         9331
