unknown system                          
           1
     7.260000    0.000000    0.000000
     0.000000    5.133595    0.000000
     0.000000    0.000000   21.416994
   Cu
    24
Direct configuration=     1
   0.00000000  0.00000000  0.00000000
   0.00000000  0.50000000  0.00000000
   0.50000000  0.00000000  0.00000000
   0.50000000  0.50000000  0.00000000
   0.25000000  0.25000000  0.05992432
   0.25000000  0.75000000  0.05992432
   0.75000000  0.25000000  0.05992432
   0.75000000  0.75000000  0.05992432
   0.00000000  0.00000000  0.11984864
   0.00000000  0.50000000  0.11984864
   0.50000000  0.00000000  0.11984864
   0.50000000  0.50000000  0.11984864
   0.25000000  0.25000000  0.17977296
   0.25000000  0.75000000  0.17977296
   0.75000000  0.25000000  0.17977296
   0.75000000  0.75000000  0.17977296
   0.00000000  0.00000000  0.23969728
   0.00000000  0.50000000  0.23969728
   0.50000000  0.00000000  0.23969728
   0.50000000  0.50000000  0.23969728
   0.25000000  0.25000000  0.29962161
   0.25000000  0.75000000  0.29962161
   0.75000000  0.25000000  0.29962161
   0.75000000  0.75000000  0.29962161
Direct configuration=     2
   0.00000000  0.00000000  0.00000000
   0.00000000  0.50000000  0.00000000
   0.50000000  0.00000000  0.00000000
   0.50000000  0.50000000  0.00000000
   0.25000000  0.25000000  0.05992432
   0.25000000  0.75000000  0.05992432
   0.75000000  0.25000000  0.05992432
   0.75000000  0.75000000  0.05992432
  -0.00000000 -0.00000000  0.12013589
  -0.00000000  0.50000000  0.12013589
   0.50000000 -0.00000000  0.12013589
   0.50000000  0.50000000  0.12013589
   0.25000000  0.25000000  0.17948440
   0.25000000  0.75000000  0.17948440
   0.75000000  0.25000000  0.17948440
   0.75000000  0.75000000  0.17948440
   0.00000000 -0.00000000  0.24022701
   0.00000000  0.50000000  0.24022701
   0.50000000 -0.00000000  0.24022701
   0.50000000  0.50000000  0.24022701
   0.25000000  0.25000000  0.29853493
   0.25000000  0.75000000  0.29853493
   0.75000000  0.25000000  0.29853493
   0.75000000  0.75000000  0.29853493
Direct configuration=     3
   0.00000000  0.00000000  0.00000000
   0.00000000  0.50000000  0.00000000
   0.50000000  0.00000000  0.00000000
   0.50000000  0.50000000  0.00000000
   0.25000000  0.25000000  0.05992432
   0.25000000  0.75000000  0.05992432
   0.75000000  0.25000000  0.05992432
   0.75000000  0.75000000  0.05992432
  -0.00000000 -0.00000000  0.12099761
  -0.00000000  0.50000000  0.12099761
   0.50000000 -0.00000000  0.12099761
   0.50000000  0.50000000  0.12099761
   0.25000000  0.25000000  0.17861871
   0.25000000  0.75000000  0.17861871
   0.75000000  0.25000000  0.17861871
   0.75000000  0.75000000  0.17861871
   0.00000000 -0.00000000  0.24181617
   0.00000000  0.50000000  0.24181617
   0.50000000 -0.00000000  0.24181617
   0.50000000  0.50000000  0.24181617
   0.25000000  0.25000000  0.29527490
   0.25000000  0.75000000  0.29527490
   0.75000000  0.25000000  0.29527490
   0.75000000  0.75000000  0.29527490
Direct configuration=     4
   0.00000000  0.00000000  0.00000000
   0.00000000  0.50000000  0.00000000
   0.50000000  0.00000000  0.00000000
   0.50000000  0.50000000  0.00000000
   0.25000000  0.25000000  0.05992432
   0.25000000  0.75000000  0.05992432
   0.75000000  0.25000000  0.05992432
   0.75000000  0.75000000  0.05992432
  -0.00000000 -0.00000000  0.12103366
  -0.00000000  0.50000000  0.12103366
   0.50000000 -0.00000000  0.12103366
   0.50000000  0.50000000  0.12103366
   0.25000000  0.25000000  0.17858251
   0.25000000  0.75000000  0.17858251
   0.75000000  0.25000000  0.17858251
   0.75000000  0.75000000  0.17858251
   0.00000000 -0.00000000  0.24188264
   0.00000000  0.50000000  0.24188264
   0.50000000 -0.00000000  0.24188264
   0.50000000  0.50000000  0.24188264
   0.25000000  0.25000000  0.29513854
   0.25000000  0.75000000  0.29513854
   0.75000000  0.25000000  0.29513854
   0.75000000  0.75000000  0.29513854
Direct configuration=     5
   0.00000000  0.00000000  0.00000000
   0.00000000  0.50000000  0.00000000
   0.50000000  0.00000000  0.00000000
   0.50000000  0.50000000  0.00000000
   0.25000000  0.25000000  0.05992432
   0.25000000  0.75000000  0.05992432
   0.75000000  0.25000000  0.05992432
   0.75000000  0.75000000  0.05992432
  -0.00000000 -0.00000000  0.12101507
  -0.00000000  0.50000000  0.12101507
   0.50000000 -0.00000000  0.12101507
   0.50000000  0.50000000  0.12101507
   0.25000000  0.25000000  0.17860117
   0.25000000  0.75000000  0.17860117
   0.75000000  0.25000000  0.17860117
   0.75000000  0.75000000  0.17860117
   0.00000000 -0.00000000  0.24184837
   0.00000000  0.50000000  0.24184837
   0.50000000 -0.00000000  0.24184837
   0.50000000  0.50000000  0.24184837
   0.25000000  0.25000000  0.29520884
   0.25000000  0.75000000  0.29520884
   0.75000000  0.25000000  0.29520884
   0.75000000  0.75000000  0.29520884
Direct configuration=     6
   0.00000000  0.00000000  0.00000000
   0.00000000  0.50000000  0.00000000
   0.50000000  0.00000000  0.00000000
   0.50000000  0.50000000  0.00000000
   0.25000000  0.25000000  0.05992432
   0.25000000  0.75000000  0.05992432
   0.75000000  0.25000000  0.05992432
   0.75000000  0.75000000  0.05992432
  -0.00000000 -0.00000000  0.12102689
  -0.00000000  0.50000000  0.12102689
   0.50000000 -0.00000000  0.12102689
   0.50000000  0.50000000  0.12102689
   0.25000000  0.25000000  0.17858930
   0.25000000  0.75000000  0.17858930
   0.75000000  0.25000000  0.17858930
   0.75000000  0.75000000  0.17858930
   0.00000000 -0.00000000  0.24187016
   0.00000000  0.50000000  0.24187016
   0.50000000 -0.00000000  0.24187016
   0.50000000  0.50000000  0.24187016
   0.25000000  0.25000000  0.29516414
   0.25000000  0.75000000  0.29516414
   0.75000000  0.25000000  0.29516414
   0.75000000  0.75000000  0.29516414
Direct configuration=     7
   0.00000000  0.00000000  0.00000000
   0.00000000  0.50000000  0.00000000
   0.50000000  0.00000000  0.00000000
   0.50000000  0.50000000  0.00000000
   0.25000000  0.25000000  0.05992432
   0.25000000  0.75000000  0.05992432
   0.75000000  0.25000000  0.05992432
   0.75000000  0.75000000  0.05992432
  -0.00000000 -0.00000000  0.12102098
  -0.00000000  0.50000000  0.12102098
   0.50000000 -0.00000000  0.12102098
   0.50000000  0.50000000  0.12102098
   0.25000000  0.25000000  0.17859524
   0.25000000  0.75000000  0.17859524
   0.75000000  0.25000000  0.17859524
   0.75000000  0.75000000  0.17859524
   0.00000000 -0.00000000  0.24185926
   0.00000000  0.50000000  0.24185926
   0.50000000 -0.00000000  0.24185926
   0.50000000  0.50000000  0.24185926
   0.25000000  0.25000000  0.29518649
   0.25000000  0.75000000  0.29518649
   0.75000000  0.25000000  0.29518649
   0.75000000  0.75000000  0.29518649
Direct configuration=     8
   0.00000000  0.00000000  0.00000000
   0.00000000  0.50000000  0.00000000
   0.50000000  0.00000000  0.00000000
   0.50000000  0.50000000  0.00000000
   0.25000000  0.25000000  0.05992432
   0.25000000  0.75000000  0.05992432
   0.75000000  0.25000000  0.05992432
   0.75000000  0.75000000  0.05992432
  -0.00000000 -0.00000000  0.12102396
  -0.00000000  0.50000000  0.12102396
   0.50000000 -0.00000000  0.12102396
   0.50000000  0.50000000  0.12102396
   0.25000000  0.25000000  0.17859225
   0.25000000  0.75000000  0.17859225
   0.75000000  0.25000000  0.17859225
   0.75000000  0.75000000  0.17859225
   0.00000000 -0.00000000  0.24186475
   0.00000000  0.50000000  0.24186475
   0.50000000 -0.00000000  0.24186475
   0.50000000  0.50000000  0.24186475
   0.25000000  0.25000000  0.29517525
   0.25000000  0.75000000  0.29517525
   0.75000000  0.25000000  0.29517525
   0.75000000  0.75000000  0.29517525
Direct configuration=     9
   0.00000000  0.00000000  0.00000000
   0.00000000  0.50000000  0.00000000
   0.50000000  0.00000000  0.00000000
   0.50000000  0.50000000  0.00000000
   0.25000000  0.25000000  0.05992432
   0.25000000  0.75000000  0.05992432
   0.75000000  0.25000000  0.05992432
   0.75000000  0.75000000  0.05992432
  -0.00000000 -0.00000000  0.12095471
  -0.00000000  0.50000000  0.12095471
   0.50000000 -0.00000000  0.12095471
   0.50000000  0.50000000  0.12095471
   0.25000000  0.25000000  0.17842129
   0.25000000  0.75000000  0.17842129
   0.75000000  0.25000000  0.17842129
   0.75000000  0.75000000  0.17842129
   0.00000000 -0.00000000  0.24137120
   0.00000000  0.50000000  0.24137120
   0.50000000 -0.00000000  0.24137120
   0.50000000  0.50000000  0.24137120
   0.25000000  0.25000000  0.29470497
   0.25000000  0.75000000  0.29470497
   0.75000000  0.25000000  0.29470497
   0.75000000  0.75000000  0.29470497
Direct configuration=    10
   0.00000000  0.00000000  0.00000000
   0.00000000  0.50000000  0.00000000
   0.50000000  0.00000000  0.00000000
   0.50000000  0.50000000  0.00000000
   0.25000000  0.25000000  0.05992432
   0.25000000  0.75000000  0.05992432
   0.75000000  0.25000000  0.05992432
   0.75000000  0.75000000  0.05992432
  -0.00000000  0.00000000  0.12074698
   0.00000000  0.50000000  0.12074698
   0.50000000 -0.00000000  0.12074698
   0.50000000  0.50000000  0.12074698
   0.25000000  0.25000000  0.17790840
   0.25000000  0.75000000  0.17790840
   0.75000000  0.25000000  0.17790840
   0.75000000  0.75000000  0.17790840
   0.00000000 -0.00000000  0.23989058
   0.00000000  0.50000000  0.23989058
   0.50000000 -0.00000000  0.23989058
   0.50000000  0.50000000  0.23989058
   0.25000000  0.25000000  0.29329414
   0.25000000  0.75000000  0.29329414
   0.75000000  0.25000000  0.29329414
   0.75000000  0.75000000  0.29329414
Direct configuration=    11
   0.00000000  0.00000000  0.00000000
   0.00000000  0.50000000  0.00000000
   0.50000000  0.00000000  0.00000000
   0.50000000  0.50000000  0.00000000
   0.25000000  0.25000000  0.05992432
   0.25000000  0.75000000  0.05992432
   0.75000000  0.25000000  0.05992432
   0.75000000  0.75000000  0.05992432
  -0.00000000  0.00000000  0.12033151
   0.00000000  0.50000000  0.12033151
   0.50000000 -0.00000000  0.12033151
   0.50000000  0.50000000  0.12033151
   0.25000000  0.25000000  0.17688261
   0.25000000  0.75000000  0.17688261
   0.75000000  0.25000000  0.17688261
   0.75000000  0.75000000  0.17688261
   0.00000000 -0.00000000  0.23692933
   0.00000000  0.50000000  0.23692933
   0.50000000 -0.00000000  0.23692933
   0.50000000  0.50000000  0.23692933
   0.25000000  0.25000000  0.29047249
   0.25000000  0.75000000  0.29047249
   0.75000000  0.25000000  0.29047249
   0.75000000  0.75000000  0.29047249
Direct configuration=    12
   0.00000000  0.00000000  0.00000000
   0.00000000  0.50000000  0.00000000
   0.50000000  0.00000000  0.00000000
   0.50000000  0.50000000  0.00000000
   0.25000000  0.25000000  0.05992432
   0.25000000  0.75000000  0.05992432
   0.75000000  0.25000000  0.05992432
   0.75000000  0.75000000  0.05992432
  -0.00000000  0.00000000  0.12052907
   0.00000000  0.50000000  0.12052907
   0.50000000 -0.00000000  0.12052907
   0.50000000  0.50000000  0.12052907
   0.25000000  0.25000000  0.17737040
   0.25000000  0.75000000  0.17737040
   0.75000000  0.25000000  0.17737040
   0.75000000  0.75000000  0.17737040
   0.00000000 -0.00000000  0.23833748
   0.00000000  0.50000000  0.23833748
   0.50000000 -0.00000000  0.23833748
   0.50000000  0.50000000  0.23833748
   0.25000000  0.25000000  0.29181426
   0.25000000  0.75000000  0.29181426
   0.75000000  0.25000000  0.29181426
   0.75000000  0.75000000  0.29181426
Direct configuration=    13
   0.00000000  0.00000000  0.00000000
   0.00000000  0.50000000  0.00000000
   0.50000000  0.00000000  0.00000000
   0.50000000  0.50000000  0.00000000
   0.25000000  0.25000000  0.05992432
   0.25000000  0.75000000  0.05992432
   0.75000000  0.25000000  0.05992432
   0.75000000  0.75000000  0.05992432
  -0.00000000  0.00000000  0.12007981
   0.00000000  0.50000000  0.12007981
   0.50000000 -0.00000000  0.12007981
   0.50000000  0.50000000  0.12007981
   0.25000000  0.25000000  0.17684872
   0.25000000  0.75000000  0.17684872
   0.75000000  0.25000000  0.17684872
   0.75000000  0.75000000  0.17684872
   0.00000000 -0.00000000  0.23796358
   0.00000000  0.50000000  0.23796358
   0.50000000 -0.00000000  0.23796358
   0.50000000  0.50000000  0.23796358
   0.25000000  0.25000000  0.29145554
   0.25000000  0.75000000  0.29145554
   0.75000000  0.25000000  0.29145554
   0.75000000  0.75000000  0.29145554
Direct configuration=    14
   0.00000000  0.00000000  0.00000000
   0.00000000  0.50000000  0.00000000
   0.50000000  0.00000000  0.00000000
   0.50000000  0.50000000  0.00000000
   0.25000000  0.25000000  0.05992432
   0.25000000  0.75000000  0.05992432
   0.75000000  0.25000000  0.05992432
   0.75000000  0.75000000  0.05992432
  -0.00000000  0.00000000  0.11873204
   0.00000000  0.50000000  0.11873204
   0.50000000 -0.00000000  0.11873204
   0.50000000  0.50000000  0.11873204
   0.25000000  0.25000000  0.17528370
   0.25000000  0.75000000  0.17528370
   0.75000000  0.25000000  0.17528370
   0.75000000  0.75000000  0.17528370
   0.00000000 -0.00000000  0.23684188
   0.00000000  0.50000000  0.23684188
   0.50000000 -0.00000000  0.23684188
   0.50000000  0.50000000  0.23684188
   0.25000000  0.25000000  0.29037939
   0.25000000  0.75000000  0.29037939
   0.75000000  0.25000000  0.29037939
   0.75000000  0.75000000  0.29037939
Direct configuration=    15
   0.00000000  0.00000000  0.00000000
   0.00000000  0.50000000  0.00000000
   0.50000000  0.00000000  0.00000000
   0.50000000  0.50000000  0.00000000
   0.25000000  0.25000000  0.05992432
   0.25000000  0.75000000  0.05992432
   0.75000000  0.25000000  0.05992432
   0.75000000  0.75000000  0.05992432
  -0.00000000  0.00000000  0.11883581
   0.00000000  0.50000000  0.11883581
   0.50000000 -0.00000000  0.11883581
   0.50000000  0.50000000  0.11883581
   0.25000000  0.25000000  0.17540421
   0.25000000  0.75000000  0.17540421
   0.75000000  0.25000000  0.17540421
   0.75000000  0.75000000  0.17540421
   0.00000000 -0.00000000  0.23692825
   0.00000000  0.50000000  0.23692825
   0.50000000 -0.00000000  0.23692825
   0.50000000  0.50000000  0.23692825
   0.25000000  0.25000000  0.29046225
   0.25000000  0.75000000  0.29046225
   0.75000000  0.25000000  0.29046225
   0.75000000  0.75000000  0.29046225
Direct configuration=    16
   0.00000000  0.00000000  0.00000000
   0.00000000  0.50000000  0.00000000
   0.50000000  0.00000000  0.00000000
   0.50000000  0.50000000  0.00000000
   0.25000000  0.25000000  0.05992432
   0.25000000  0.75000000  0.05992432
   0.75000000  0.25000000  0.05992432
   0.75000000  0.75000000  0.05992432
  -0.00000000  0.00000000  0.11880072
   0.00000000  0.50000000  0.11880072
   0.50000000 -0.00000000  0.11880072
   0.50000000  0.50000000  0.11880072
   0.25000000  0.25000000  0.17536346
   0.25000000  0.75000000  0.17536346
   0.75000000  0.25000000  0.17536346
   0.75000000  0.75000000  0.17536346
   0.00000000 -0.00000000  0.23689904
   0.00000000  0.50000000  0.23689904
   0.50000000 -0.00000000  0.23689904
   0.50000000  0.50000000  0.23689904
   0.25000000  0.25000000  0.29043423
   0.25000000  0.75000000  0.29043423
   0.75000000  0.25000000  0.29043423
   0.75000000  0.75000000  0.29043423
Direct configuration=    17
   0.00000000  0.00000000  0.00000000
   0.00000000  0.50000000  0.00000000
   0.50000000  0.00000000  0.00000000
   0.50000000  0.50000000  0.00000000
   0.25000000  0.25000000  0.05992432
   0.25000000  0.75000000  0.05992432
   0.75000000  0.25000000  0.05992432
   0.75000000  0.75000000  0.05992432
  -0.00000000  0.00000000  0.11882479
   0.00000000  0.50000000  0.11882479
   0.50000000 -0.00000000  0.11882479
   0.50000000  0.50000000  0.11882479
   0.25000000  0.25000000  0.17539141
   0.25000000  0.75000000  0.17539141
   0.75000000  0.25000000  0.17539141
   0.75000000  0.75000000  0.17539141
   0.00000000 -0.00000000  0.23691908
   0.00000000  0.50000000  0.23691908
   0.50000000 -0.00000000  0.23691908
   0.50000000  0.50000000  0.23691908
   0.25000000  0.25000000  0.29045345
   0.25000000  0.75000000  0.29045345
   0.75000000  0.25000000  0.29045345
   0.75000000  0.75000000  0.29045345
Direct configuration=    18
   0.00000000  0.00000000  0.00000000
   0.00000000  0.50000000  0.00000000
   0.50000000  0.00000000  0.00000000
   0.50000000  0.50000000  0.00000000
   0.25000000  0.25000000  0.05992432
   0.25000000  0.75000000  0.05992432
   0.75000000  0.25000000  0.05992432
   0.75000000  0.75000000  0.05992432
  -0.00000000  0.00000000  0.11881808
   0.00000000  0.50000000  0.11881808
   0.50000000 -0.00000000  0.11881808
   0.50000000  0.50000000  0.11881808
   0.25000000  0.25000000  0.17538362
   0.25000000  0.75000000  0.17538362
   0.75000000  0.25000000  0.17538362
   0.75000000  0.75000000  0.17538362
   0.00000000 -0.00000000  0.23691349
   0.00000000  0.50000000  0.23691349
   0.50000000 -0.00000000  0.23691349
   0.50000000  0.50000000  0.23691349
   0.25000000  0.25000000  0.29044809
   0.25000000  0.75000000  0.29044809
   0.75000000  0.25000000  0.29044809
   0.75000000  0.75000000  0.29044809
Direct configuration=    19
   0.00000000  0.00000000  0.00000000
   0.00000000  0.50000000  0.00000000
   0.50000000  0.00000000  0.00000000
   0.50000000  0.50000000  0.00000000
   0.25000000  0.25000000  0.05992432
   0.25000000  0.75000000  0.05992432
   0.75000000  0.25000000  0.05992432
   0.75000000  0.75000000  0.05992432
  -0.00000000  0.00000000  0.11882368
   0.00000000  0.50000000  0.11882368
   0.50000000 -0.00000000  0.11882368
   0.50000000  0.50000000  0.11882368
   0.25000000  0.25000000  0.17539012
   0.25000000  0.75000000  0.17539012
   0.75000000  0.25000000  0.17539012
   0.75000000  0.75000000  0.17539012
   0.00000000 -0.00000000  0.23691815
   0.00000000  0.50000000  0.23691815
   0.50000000 -0.00000000  0.23691815
   0.50000000  0.50000000  0.23691815
   0.25000000  0.25000000  0.29045256
   0.25000000  0.75000000  0.29045256
   0.75000000  0.25000000  0.29045256
   0.75000000  0.75000000  0.29045256
Direct configuration=    20
   0.00000000  0.00000000  0.00000000
   0.00000000  0.50000000  0.00000000
   0.50000000  0.00000000  0.00000000
   0.50000000  0.50000000  0.00000000
   0.25000000  0.25000000  0.05992432
   0.25000000  0.75000000  0.05992432
   0.75000000  0.25000000  0.05992432
   0.75000000  0.75000000  0.05992432
  -0.00000000  0.00000000  0.11881921
   0.00000000  0.50000000  0.11881921
   0.50000000 -0.00000000  0.11881921
   0.50000000  0.50000000  0.11881921
   0.25000000  0.25000000  0.17538493
   0.25000000  0.75000000  0.17538493
   0.75000000  0.25000000  0.17538493
   0.75000000  0.75000000  0.17538493
   0.00000000 -0.00000000  0.23691444
   0.00000000  0.50000000  0.23691444
   0.50000000 -0.00000000  0.23691444
   0.50000000  0.50000000  0.23691444
   0.25000000  0.25000000  0.29044900
   0.25000000  0.75000000  0.29044900
   0.75000000  0.25000000  0.29044900
   0.75000000  0.75000000  0.29044900
Direct configuration=    21
   0.00000000  0.00000000  0.00000000
   0.00000000  0.50000000  0.00000000
   0.50000000  0.00000000  0.00000000
   0.50000000  0.50000000  0.00000000
   0.25000000  0.25000000  0.05992432
   0.25000000  0.75000000  0.05992432
   0.75000000  0.25000000  0.05992432
   0.75000000  0.75000000  0.05992432
  -0.00000000  0.00000000  0.11882145
   0.00000000  0.50000000  0.11882145
   0.50000000 -0.00000000  0.11882145
   0.50000000  0.50000000  0.11882145
   0.25000000  0.25000000  0.17538753
   0.25000000  0.75000000  0.17538753
   0.75000000  0.25000000  0.17538753
   0.75000000  0.75000000  0.17538753
   0.00000000 -0.00000000  0.23691629
   0.00000000  0.50000000  0.23691629
   0.50000000 -0.00000000  0.23691629
   0.50000000  0.50000000  0.23691629
   0.25000000  0.25000000  0.29045078
   0.25000000  0.75000000  0.29045078
   0.75000000  0.25000000  0.29045078
   0.75000000  0.75000000  0.29045078
Direct configuration=    22
   0.00000000  0.00000000  0.00000000
   0.00000000  0.50000000  0.00000000
   0.50000000  0.00000000  0.00000000
   0.50000000  0.50000000  0.00000000
   0.25000000  0.25000000  0.05992432
   0.25000000  0.75000000  0.05992432
   0.75000000  0.25000000  0.05992432
   0.75000000  0.75000000  0.05992432
  -0.00000000  0.00000000  0.11882042
   0.00000000  0.50000000  0.11882042
   0.50000000 -0.00000000  0.11882042
   0.50000000  0.50000000  0.11882042
   0.25000000  0.25000000  0.17538633
   0.25000000  0.75000000  0.17538633
   0.75000000  0.25000000  0.17538633
   0.75000000  0.75000000  0.17538633
   0.00000000 -0.00000000  0.23691544
   0.00000000  0.50000000  0.23691544
   0.50000000 -0.00000000  0.23691544
   0.50000000  0.50000000  0.23691544
   0.25000000  0.25000000  0.29044996
   0.25000000  0.75000000  0.29044996
   0.75000000  0.25000000  0.29044996
   0.75000000  0.75000000  0.29044996
Direct configuration=    23
   0.00000000  0.00000000  0.00000000
   0.00000000  0.50000000  0.00000000
   0.50000000  0.00000000  0.00000000
   0.50000000  0.50000000  0.00000000
   0.25000000  0.25000000  0.05992432
   0.25000000  0.75000000  0.05992432
   0.75000000  0.25000000  0.05992432
   0.75000000  0.75000000  0.05992432
  -0.00000000  0.00000000  0.11882062
   0.00000000  0.50000000  0.11882062
   0.50000000 -0.00000000  0.11882062
   0.50000000  0.50000000  0.11882062
   0.25000000  0.25000000  0.17538656
   0.25000000  0.75000000  0.17538656
   0.75000000  0.25000000  0.17538656
   0.75000000  0.75000000  0.17538656
   0.00000000 -0.00000000  0.23691560
   0.00000000  0.50000000  0.23691560
   0.50000000 -0.00000000  0.23691560
   0.50000000  0.50000000  0.23691560
   0.25000000  0.25000000  0.29045012
   0.25000000  0.75000000  0.29045012
   0.75000000  0.25000000  0.29045012
   0.75000000  0.75000000  0.29045012
Direct configuration=    24
   0.00000000  0.00000000  0.00000000
   0.00000000  0.50000000  0.00000000
   0.50000000  0.00000000  0.00000000
   0.50000000  0.50000000  0.00000000
   0.25000000  0.25000000  0.05992432
   0.25000000  0.75000000  0.05992432
   0.75000000  0.25000000  0.05992432
   0.75000000  0.75000000  0.05992432
  -0.00000000  0.00000000  0.11864485
   0.00000000  0.50000000  0.11864485
   0.50000000 -0.00000000  0.11864485
   0.50000000  0.50000000  0.11864485
   0.25000000  0.25000000  0.17546811
   0.25000000  0.75000000  0.17546811
   0.75000000  0.25000000  0.17546811
   0.75000000  0.75000000  0.17546811
   0.00000000 -0.00000000  0.23686639
   0.00000000  0.50000000  0.23686639
   0.50000000 -0.00000000  0.23686639
   0.50000000  0.50000000  0.23686639
   0.25000000  0.25000000  0.29035223
   0.25000000  0.75000000  0.29035223
   0.75000000  0.25000000  0.29035223
   0.75000000  0.75000000  0.29035223
