       N       E                     dE             d eps       ncg     rms          rms(c)
DAV:   1     0.793937875054E+03    0.79394E+03   -0.33419E+04   728   0.189E+03
DAV:   2     0.717388503983E+02   -0.72220E+03   -0.69189E+03   720   0.401E+02
DAV:   3    -0.332269505682E+02   -0.10497E+03   -0.98928E+02   744   0.197E+02
DAV:   4    -0.377207666131E+02   -0.44938E+01   -0.44564E+01   804   0.566E+01
DAV:   5    -0.378199029213E+02   -0.99136E-01   -0.99088E-01   804   0.719E+00    0.280E+01
DAV:   6    -0.328224499225E+02    0.49975E+01   -0.10422E+02   924   0.183E+02    0.179E+01
DAV:   7    -0.791428456100E+02   -0.46320E+02   -0.23750E+02  1016   0.245E+02    0.531E+01
DAV:   8    -0.363051649664E+02    0.42838E+02   -0.17625E+02  1192   0.125E+02    0.200E+01
DAV:   9    -0.312514407704E+02    0.50537E+01   -0.41838E+01  1148   0.821E+01    0.130E+01
DAV:  10    -0.297770182505E+02    0.14744E+01   -0.39839E+00  1000   0.434E+01    0.986E+00
DAV:  11    -0.293552895751E+02    0.42173E+00   -0.15970E+00   936   0.281E+01    0.842E+00
DAV:  12    -0.288989645938E+02    0.45632E+00   -0.24399E+00   940   0.421E+01    0.667E+00
DAV:  13    -0.296389368468E+02   -0.73997E+00   -0.12544E+00  1024   0.209E+01    0.551E+00
DAV:  14    -0.316979545997E+02   -0.20590E+01   -0.20199E+00  1068   0.325E+01    0.461E+00
DAV:  15    -0.335035343119E+02   -0.18056E+01   -0.15000E+00  1104   0.248E+01    0.377E+00
DAV:  16    -0.346520614154E+02   -0.11485E+01   -0.13500E+00   956   0.242E+01    0.235E+00
DAV:  17    -0.353366805172E+02   -0.68462E+00   -0.66517E-01  1004   0.141E+01    0.141E+00
DAV:  18    -0.357213272171E+02   -0.38465E+00   -0.28202E-01   964   0.767E+00    0.106E+00
DAV:  19    -0.359553595356E+02   -0.23403E+00   -0.12339E-01  1000   0.453E+00    0.832E-01
DAV:  20    -0.362023619081E+02   -0.24700E+00   -0.17740E-01  1012   0.553E+00    0.624E-01
DAV:  21    -0.362727998941E+02   -0.70438E-01   -0.49308E-02   992   0.385E+00    0.519E-01
DAV:  22    -0.363260701308E+02   -0.53270E-01   -0.36150E-02   852   0.387E+00    0.426E-01
DAV:  23    -0.364607812728E+02   -0.13471E+00   -0.23108E-02   888   0.214E+00    0.375E-01
DAV:  24    -0.367962784105E+02   -0.33550E+00   -0.19071E-02   876   0.174E+00    0.257E-01
DAV:  25    -0.368725906461E+02   -0.76312E-01   -0.12136E-02  1000   0.251E+00    0.205E-01
DAV:  26    -0.368968498067E+02   -0.24259E-01   -0.92641E-03   972   0.208E+00    0.124E-01
DAV:  27    -0.369037766012E+02   -0.69268E-02   -0.22791E-03   896   0.714E-01    0.910E-02
DAV:  28    -0.369087150033E+02   -0.49384E-02   -0.14050E-03   652   0.492E-01    0.689E-02
DAV:  29    -0.369110397451E+02   -0.23247E-02   -0.10243E-03   720   0.355E-01    0.583E-02
DAV:  30    -0.369117866341E+02   -0.74689E-03   -0.45044E-04   552   0.444E-01    0.556E-02
DAV:  31    -0.369128535735E+02   -0.10669E-02   -0.54497E-04   572   0.343E-01    0.429E-02
DAV:  32    -0.369139996694E+02   -0.11461E-02   -0.27993E-04   516   0.274E-01    0.251E-02
DAV:  33    -0.369152255623E+02   -0.12259E-02   -0.16403E-04   520   0.164E-01    0.184E-02
DAV:  34    -0.369158315612E+02   -0.60600E-03   -0.12912E-04   456   0.138E-01    0.149E-02
DAV:  35    -0.369161990083E+02   -0.36745E-03   -0.12690E-04   456   0.196E-01    0.743E-03
DAV:  36    -0.369162711538E+02   -0.72145E-04   -0.47734E-05   452   0.760E-02
   1 F= -.40604850E+02 E0= -.40595907E+02  d E =-.406049E+02  mag=    -0.0005
       N       E                     dE             d eps       ncg     rms          rms(c)
DAV:   1    -0.369764885379E+02   -0.60290E-01   -0.36463E+01   792   0.246E+01    0.670E-01
DAV:   2    -0.370658386552E+02   -0.89350E-01   -0.11616E+00  1192   0.145E+01    0.806E-01
DAV:   3    -0.370452623823E+02    0.20576E-01   -0.69431E-01  1248   0.184E+01    0.602E-01
DAV:   4    -0.370351751477E+02    0.10087E-01   -0.10101E-01  1120   0.694E+00    0.358E-01
DAV:   5    -0.370358094900E+02   -0.63434E-03   -0.23314E-02  1120   0.471E+00    0.286E-01
DAV:   6    -0.370343042302E+02    0.15053E-02   -0.23589E-02  1192   0.474E+00    0.129E-01
DAV:   7    -0.370339388209E+02    0.36541E-03   -0.52018E-03  1104   0.208E+00    0.616E-02
DAV:   8    -0.370339314130E+02    0.74079E-05   -0.13087E-03   696   0.980E-01
   2 F= -.40728990E+02 E0= -.40719779E+02  d E =-.124140E+00  mag=    -0.0004
       N       E                     dE             d eps       ncg     rms          rms(c)
DAV:   1    -0.370295275577E+02    0.44113E-02   -0.75524E+00   760   0.109E+01    0.285E-01
DAV:   2    -0.370457955551E+02   -0.16268E-01   -0.20660E-01  1152   0.532E+00    0.316E-01
DAV:   3    -0.370435640320E+02    0.22315E-02   -0.11365E-01  1160   0.791E+00    0.269E-01
DAV:   4    -0.370415512851E+02    0.20127E-02   -0.21234E-02   992   0.333E+00    0.158E-01
DAV:   5    -0.370418017894E+02   -0.25050E-03   -0.50339E-03   924   0.205E+00    0.131E-01
DAV:   6    -0.370413872124E+02    0.41458E-03   -0.52942E-03  1000   0.230E+00    0.483E-02
DAV:   7    -0.370413662252E+02    0.20987E-04   -0.86239E-04   632   0.819E-01
   3 F= -.40741356E+02 E0= -.40732038E+02  d E =-.136505E+00  mag=    -0.0004
       N       E                     dE             d eps       ncg     rms          rms(c)
DAV:   1    -0.370387739818E+02    0.26132E-02   -0.26646E+01   752   0.212E+01    0.678E-01
DAV:   2    -0.371031613515E+02   -0.64387E-01   -0.73088E-01  1032   0.906E+00    0.690E-01
DAV:   3    -0.371009255219E+02    0.22358E-02   -0.16809E-01  1128   0.105E+01    0.580E-01
DAV:   4    -0.370957472637E+02    0.51783E-02   -0.92092E-02   960   0.762E+00    0.407E-01
DAV:   5    -0.370966485511E+02   -0.90129E-03   -0.81090E-02  1112   0.829E+00    0.345E-01
DAV:   6    -0.370923756627E+02    0.42729E-02   -0.58018E-02  1264   0.609E+00    0.108E-01
DAV:   7    -0.370920787827E+02    0.29688E-03   -0.54704E-03  1284   0.164E+00    0.306E-02
DAV:   8    -0.370921040420E+02   -0.25259E-04   -0.96804E-04   712   0.482E-01
   4 F= -.40790588E+02 E0= -.40781684E+02  d E =-.492320E-01  mag=    -0.0003
       N       E                     dE             d eps       ncg     rms          rms(c)
DAV:   1    -0.370940280826E+02   -0.19493E-02   -0.90930E-01   752   0.386E+00    0.137E-01
DAV:   2    -0.370958785870E+02   -0.18505E-02   -0.23100E-02  1072   0.155E+00    0.125E-01
DAV:   3    -0.370959202667E+02   -0.41680E-04   -0.91296E-03   728   0.232E+00    0.113E-01
DAV:   4    -0.370955347070E+02    0.38556E-03   -0.49471E-03   560   0.164E+00    0.588E-02
DAV:   5    -0.370955231563E+02    0.11551E-04   -0.11912E-03   568   0.890E-01
   5 F= -.40793551E+02 E0= -.40784652E+02  d E =-.521954E-01  mag=    -0.0003
       N       E                     dE             d eps       ncg     rms          rms(c)
DAV:   1    -0.370975914868E+02   -0.20568E-02   -0.14444E+01   760   0.153E+01    0.361E-01
DAV:   2    -0.371289854807E+02   -0.31394E-01   -0.37669E-01  1176   0.741E+00    0.375E-01
DAV:   3    -0.371268702358E+02    0.21152E-02   -0.15344E-01  1168   0.957E+00    0.361E-01
DAV:   4    -0.371240573920E+02    0.28128E-02   -0.30534E-02   960   0.406E+00    0.231E-01
DAV:   5    -0.371241138200E+02   -0.56428E-04   -0.74046E-03  1040   0.254E+00    0.176E-01
DAV:   6    -0.371234641749E+02    0.64965E-03   -0.84441E-03  1144   0.272E+00    0.771E-02
DAV:   7    -0.371232623867E+02    0.20179E-03   -0.19431E-03   728   0.116E+00    0.260E-02
DAV:   8    -0.371233127371E+02   -0.50350E-04   -0.63124E-04   616   0.368E-01
   6 F= -.40826266E+02 E0= -.40817286E+02  d E =-.327146E-01  mag=    -0.0002
       N       E                     dE             d eps       ncg     rms          rms(c)
DAV:   1    -0.371105197062E+02    0.12743E-01   -0.90639E+00   752   0.121E+01    0.281E-01
DAV:   2    -0.371296911039E+02   -0.19171E-01   -0.22537E-01  1192   0.519E+00    0.289E-01
DAV:   3    -0.371289368772E+02    0.75423E-03   -0.87685E-02  1056   0.706E+00    0.286E-01
DAV:   4    -0.371271485650E+02    0.17883E-02   -0.17576E-02   936   0.308E+00    0.178E-01
DAV:   5    -0.371272287233E+02   -0.80158E-04   -0.42518E-03  1016   0.189E+00    0.132E-01
DAV:   6    -0.371268702066E+02    0.35852E-03   -0.59585E-03   960   0.243E+00    0.708E-02
DAV:   7    -0.371267057809E+02    0.16443E-03   -0.13796E-03   688   0.105E+00
   7 F= -.40833951E+02 E0= -.40824971E+02  d E =-.403997E-01  mag=    -0.0002
       N       E                     dE             d eps       ncg     rms          rms(c)
DAV:   1    -0.371202946692E+02    0.65755E-02   -0.12387E+01   752   0.146E+01    0.344E-01
DAV:   2    -0.371453240770E+02   -0.25029E-01   -0.27459E-01  1024   0.370E+00    0.346E-01
DAV:   3    -0.371445233178E+02    0.80076E-03   -0.10526E-02   896   0.232E+00    0.266E-01
DAV:   4    -0.371442329923E+02    0.29033E-03   -0.75968E-03   896   0.260E+00    0.199E-01
DAV:   5    -0.371453277839E+02   -0.10948E-02   -0.35466E-02   880   0.466E+00    0.197E-01
DAV:   6    -0.371436785802E+02    0.16492E-02   -0.35482E-02   672   0.430E+00    0.983E-02
DAV:   7    -0.371430978603E+02    0.58072E-03   -0.53774E-03   960   0.183E+00    0.334E-02
DAV:   8    -0.371431334910E+02   -0.35631E-04   -0.83692E-04   688   0.352E-01
   8 F= -.40852311E+02 E0= -.40843436E+02  d E =-.183601E-01  mag=    -0.0002
       N       E                     dE             d eps       ncg     rms          rms(c)
DAV:   1    -0.371386643469E+02    0.44335E-02   -0.33859E+00   752   0.753E+00    0.181E-01
DAV:   2    -0.371452503762E+02   -0.65860E-02   -0.72117E-02  1004   0.192E+00    0.175E-01
DAV:   3    -0.371450690690E+02    0.18131E-03   -0.28551E-03   864   0.123E+00    0.136E-01
DAV:   4    -0.371449723946E+02    0.96674E-04   -0.16103E-03   608   0.135E+00
   9 F= -.40855400E+02 E0= -.40846779E+02  d E =-.214485E-01  mag=    -0.0001
       N       E                     dE             d eps       ncg     rms          rms(c)
DAV:   1    -0.371434236550E+02    0.16454E-02   -0.77542E+00   752   0.114E+01    0.316E-01
DAV:   2    -0.371591255743E+02   -0.15702E-01   -0.18875E-01  1248   0.654E+00    0.348E-01
DAV:   3    -0.371567387893E+02    0.23868E-02   -0.77109E-02  1232   0.695E+00    0.260E-01
DAV:   4    -0.371558184985E+02    0.92029E-03   -0.24947E-02  1184   0.350E+00    0.193E-01
DAV:   5    -0.371554920394E+02    0.32646E-03   -0.12067E-02   984   0.274E+00    0.131E-01
DAV:   6    -0.371549302637E+02    0.56178E-03   -0.44651E-03  1064   0.181E+00    0.436E-02
DAV:   7    -0.371549276083E+02    0.26554E-05   -0.64785E-04   648   0.692E-01
  10 F= -.40867302E+02 E0= -.40858252E+02  d E =-.119026E-01  mag=    -0.0001
       N       E                     dE             d eps       ncg     rms          rms(c)
DAV:   1    -0.371533702042E+02    0.15601E-02   -0.78268E-01   760   0.362E+00    0.915E-02
DAV:   2    -0.371548032169E+02   -0.14330E-02   -0.15750E-02  1056   0.996E-01    0.844E-02
DAV:   3    -0.371548068162E+02   -0.35993E-05   -0.21353E-03   792   0.120E+00    0.734E-02
DAV:   4    -0.371547555116E+02    0.51305E-04   -0.15617E-03   480   0.989E-01
  11 F= -.40867914E+02 E0= -.40858772E+02  d E =-.125148E-01  mag=    -0.0001
       N       E                     dE             d eps       ncg     rms          rms(c)
DAV:   1    -0.371547003256E+02    0.10649E-03   -0.53566E+00   752   0.952E+00    0.228E-01
DAV:   2    -0.371667768776E+02   -0.12077E-01   -0.14156E-01  1128   0.503E+00    0.278E-01
DAV:   3    -0.371645624464E+02    0.22144E-02   -0.57375E-02  1228   0.574E+00    0.215E-01
DAV:   4    -0.371639318651E+02    0.63058E-03   -0.53874E-03  1024   0.157E+00    0.151E-01
DAV:   5    -0.371639844067E+02   -0.52542E-04   -0.30249E-03   940   0.163E+00    0.118E-01
DAV:   6    -0.371636117373E+02    0.37267E-03   -0.39400E-03   800   0.197E+00    0.536E-02
DAV:   7    -0.371635346916E+02    0.77046E-04   -0.97443E-04   544   0.995E-01
  12 F= -.40875882E+02 E0= -.40866728E+02  d E =-.796772E-02  mag=    -0.0001
       N       E                     dE             d eps       ncg     rms          rms(c)
DAV:   1    -0.371497431420E+02    0.13869E-01   -0.92654E+00   752   0.125E+01    0.290E-01
DAV:   2    -0.371678873460E+02   -0.18144E-01   -0.19974E-01  1020   0.366E+00    0.300E-01
DAV:   3    -0.371677236622E+02    0.16368E-03   -0.21693E-02   928   0.367E+00    0.243E-01
DAV:   4    -0.371671868446E+02    0.53682E-03   -0.16114E-02   856   0.302E+00    0.190E-01
DAV:   5    -0.371669614283E+02    0.22542E-03   -0.11821E-02   688   0.279E+00    0.144E-01
DAV:   6    -0.371665715709E+02    0.38986E-03   -0.89549E-03  1016   0.264E+00    0.830E-02
DAV:   7    -0.371662040748E+02    0.36750E-03   -0.20464E-03   768   0.137E+00    0.184E-02
DAV:   8    -0.371662583750E+02   -0.54300E-04   -0.66372E-04   560   0.253E-01
  13 F= -.40877839E+02 E0= -.40868784E+02  d E =-.992451E-02  mag=    -0.0001
       N       E                     dE             d eps       ncg     rms          rms(c)
DAV:   1    -0.371650671939E+02    0.11369E-02   -0.90678E-01   752   0.386E+00    0.893E-02
DAV:   2    -0.371666883946E+02   -0.16212E-02   -0.18391E-02  1000   0.102E+00    0.870E-02
DAV:   3    -0.371667000662E+02   -0.11672E-04   -0.20607E-03   680   0.113E+00    0.774E-02
DAV:   4    -0.371666165905E+02    0.83476E-04   -0.17997E-03   496   0.104E+00
  14 F= -.40878402E+02 E0= -.40869356E+02  d E =-.104879E-01  mag=    -0.0001
       N       E                     dE             d eps       ncg     rms          rms(c)
DAV:   1    -0.371663869812E+02    0.31308E-03   -0.91357E-02   760   0.141E+00    0.376E-02
DAV:   2    -0.371669140885E+02   -0.52711E-03   -0.69420E-03   880   0.153E+00    0.643E-02
DAV:   3    -0.371665417314E+02    0.37236E-03   -0.46496E-03   656   0.155E+00    0.335E-02
DAV:   4    -0.371665534123E+02   -0.11681E-04   -0.54155E-04   516   0.535E-01
  15 F= -.40878270E+02 E0= -.40869151E+02  d E =-.103558E-01  mag=    -0.0001
       N       E                     dE             d eps       ncg     rms          rms(c)
DAV:   1    -0.371665107756E+02    0.30956E-04   -0.25432E-02   760   0.675E-01    0.153E-02
DAV:   2    -0.371665525734E+02   -0.41798E-04   -0.43432E-04   552   0.278E-01
  16 F= -.40878305E+02 E0= -.40869209E+02  d E =-.103910E-01  mag=    -0.0001
       N       E                     dE             d eps       ncg     rms          rms(c)
DAV:   1    -0.371665675175E+02   -0.56742E-04   -0.64649E-03  1072   0.548E-01    0.924E-03
DAV:   2    -0.371667028626E+02   -0.13535E-03   -0.18405E-03   512   0.103E+00
  17 F= -.40878438E+02 E0= -.40869403E+02  d E =-.105232E-01  mag=    -0.0001
       N       E                     dE             d eps       ncg     rms          rms(c)
DAV:   1    -0.371671349190E+02   -0.56740E-03   -0.12898E+00   768   0.477E+00    0.104E-01
DAV:   2    -0.371700782153E+02   -0.29433E-02   -0.34794E-02  1248   0.282E+00    0.142E-01
DAV:   3    -0.371695867109E+02    0.49150E-03   -0.16340E-02  1168   0.303E+00    0.934E-02
DAV:   4    -0.371694620912E+02    0.12462E-03   -0.15098E-03   592   0.903E-01
  18 F= -.40880807E+02 E0= -.40871647E+02  d E =-.236943E-02  mag=    -0.0000
       N       E                     dE             d eps       ncg     rms          rms(c)
DAV:   1    -0.371693513802E+02    0.23533E-03   -0.29635E-01   768   0.237E+00    0.830E-02
DAV:   2    -0.371702318163E+02   -0.88044E-03   -0.10250E-02  1280   0.200E+00    0.104E-01
DAV:   3    -0.371698331804E+02    0.39864E-03   -0.62171E-03   704   0.200E+00    0.699E-02
DAV:   4    -0.371697829226E+02    0.50258E-04   -0.17825E-03   528   0.106E+00
  19 F= -.40880961E+02 E0= -.40871941E+02  d E =-.252329E-02  mag=    -0.0000
       N       E                     dE             d eps       ncg     rms          rms(c)
DAV:   1    -0.371714858505E+02   -0.16527E-02   -0.91095E-01   760   0.402E+00    0.993E-02
DAV:   2    -0.371732038777E+02   -0.17180E-02   -0.19837E-02  1104   0.169E+00    0.947E-02
DAV:   3    -0.371731703447E+02    0.33533E-04   -0.76391E-03   928   0.213E+00    0.907E-02
DAV:   4    -0.371730028742E+02    0.16747E-03   -0.15437E-03   528   0.988E-01
  20 F= -.40882042E+02 E0= -.40872966E+02  d E =-.108150E-02  mag=    -0.0000
       N       E                     dE             d eps       ncg     rms          rms(c)
DAV:   1    -0.371727178004E+02    0.45254E-03   -0.23126E-02  1112   0.117E+00    0.446E-02
DAV:   2    -0.371732657685E+02   -0.54797E-03   -0.54332E-03   556   0.233E+00    0.102E-01
DAV:   3    -0.371726413754E+02    0.62439E-03   -0.30705E-03   524   0.171E+00    0.156E-02
DAV:   4    -0.371726380848E+02    0.32906E-05   -0.29180E-04   424   0.375E-01
  21 F= -.40882001E+02 E0= -.40872966E+02  d E =-.103985E-02  mag=    -0.0000
       N       E                     dE             d eps       ncg     rms          rms(c)
DAV:   1    -0.371728122138E+02   -0.17084E-03   -0.49857E-03   768   0.324E-01    0.115E-02
DAV:   2    -0.371728189129E+02   -0.66991E-05   -0.12343E-04   392   0.201E-01
  22 F= -.40882029E+02 E0= -.40873023E+02  d E =-.106804E-02  mag=    -0.0000
       N       E                     dE             d eps       ncg     rms          rms(c)
DAV:   1    -0.371749824473E+02   -0.21702E-02   -0.98663E-01   768   0.414E+00    0.796E-02
DAV:   2    -0.371767596713E+02   -0.17772E-02   -0.18873E-02  1020   0.113E+00    0.876E-02
DAV:   3    -0.371767075500E+02    0.52121E-04   -0.13676E-03   656   0.929E-01
  23 F= -.40883836E+02 E0= -.40874737E+02  d E =-.180754E-02  mag=    -0.0000
       N       E                     dE             d eps       ncg     rms          rms(c)
DAV:   1    -0.371778064181E+02   -0.10467E-02   -0.16946E-01   808   0.191E+00    0.813E-02
DAV:   2    -0.371787097724E+02   -0.90335E-03   -0.13445E-02   960   0.269E+00    0.114E-01
DAV:   3    -0.371778447652E+02    0.86501E-03   -0.11205E-02   704   0.258E+00    0.580E-02
DAV:   4    -0.371778444209E+02    0.34427E-06   -0.91555E-04   800   0.421E-01
  24 F= -.40884132E+02 E0= -.40875067E+02  d E =-.210280E-02  mag=    -0.0000
       N       E                     dE             d eps       ncg     rms          rms(c)
DAV:   1    -0.371787510465E+02   -0.90628E-03   -0.65804E-01   768   0.338E+00    0.603E-02
DAV:   2    -0.371799291278E+02   -0.11781E-02   -0.12289E-02  1040   0.884E-01    0.637E-02
DAV:   3    -0.371799040082E+02    0.25120E-04   -0.42187E-04   496   0.499E-01
  25 F= -.40884526E+02 E0= -.40875480E+02  d E =-.249764E-02  mag=    -0.0000
       N       E                     dE             d eps       ncg     rms          rms(c)
DAV:   1    -0.371791378752E+02    0.79125E-03   -0.70472E-02   832   0.130E+00    0.399E-02
DAV:   2    -0.371796311945E+02   -0.49332E-03   -0.67402E-03   608   0.199E+00    0.786E-02
DAV:   3    -0.371791724209E+02    0.45877E-03   -0.52785E-03   656   0.178E+00    0.199E-02
DAV:   4    -0.371792610173E+02   -0.88596E-04   -0.92119E-04   656   0.375E-01
  26 F= -.40884430E+02 E0= -.40875312E+02  d E =-.240130E-02  mag=    -0.0000
       N       E                     dE             d eps       ncg     rms          rms(c)
DAV:   1    -0.371795767354E+02   -0.40431E-03   -0.24031E-02   792   0.722E-01    0.174E-02
DAV:   2    -0.371796035699E+02   -0.26835E-04   -0.31667E-04   504   0.324E-01
  27 F= -.40884453E+02 E0= -.40875345E+02  d E =-.242461E-02  mag=    -0.0000
       N       E                     dE             d eps       ncg     rms          rms(c)
DAV:   1    -0.371794411180E+02    0.13562E-03   -0.62364E-03  1088   0.590E-01    0.932E-03
DAV:   2    -0.371795506246E+02   -0.10951E-03   -0.14616E-03   512   0.973E-01
  28 F= -.40884560E+02 E0= -.40875427E+02  d E =-.253118E-02  mag=    -0.0000
       N       E                     dE             d eps       ncg     rms          rms(c)
DAV:   1    -0.371794248381E+02    0.16280E-04   -0.11507E-03   472   0.793E-01    0.138E-02
DAV:   2    -0.371794994513E+02   -0.74613E-04   -0.75643E-04   752   0.316E-01
  29 F= -.40884443E+02 E0= -.40875373E+02  d E =-.241376E-02  mag=    -0.0000
       N       E                     dE             d eps       ncg     rms          rms(c)
DAV:   1    -0.371794328640E+02   -0.80259E-05   -0.35069E-04   392   0.413E-01    0.150E-02
DAV:   2    -0.371795510456E+02   -0.11818E-03   -0.15699E-03   504   0.103E+00
  30 F= -.40884549E+02 E0= -.40875441E+02  d E =-.252024E-02  mag=    -0.0000
       N       E                     dE             d eps       ncg     rms          rms(c)
DAV:   1    -0.371794863061E+02   -0.53442E-04   -0.11477E-03   480   0.844E-01    0.421E-03
DAV:   2    -0.371794992285E+02   -0.12922E-04   -0.16048E-04   432   0.279E-01
  31 F= -.40884464E+02 E0= -.40875372E+02  d E =-.243544E-02  mag=    -0.0000
       N       E                     dE             d eps       ncg     rms          rms(c)
DAV:   1    -0.371794696481E+02    0.16658E-04   -0.12016E-04   376   0.269E-01    0.480E-03
DAV:   2    -0.371794731851E+02   -0.35369E-05   -0.37929E-05   360   0.129E-01
  32 F= -.40884455E+02 E0= -.40875426E+02  d E =-.242589E-02  mag=    -0.0000
       N       E                     dE             d eps       ncg     rms          rms(c)
DAV:   1    -0.371794864490E+02   -0.16801E-04   -0.33080E-05   360   0.135E-01    0.323E-03
DAV:   2    -0.371794894196E+02   -0.29705E-05   -0.38142E-05   360   0.162E-01
  33 F= -.40884460E+02 E0= -.40875409E+02  d E =-.243148E-02  mag=    -0.0000
       N       E                     dE             d eps       ncg     rms          rms(c)
DAV:   1    -0.371826614228E+02   -0.31750E-02   -0.10801E+00   768   0.434E+00    0.889E-02
DAV:   2    -0.371845252105E+02   -0.18638E-02   -0.20142E-02  1000   0.107E+00    0.868E-02
DAV:   3    -0.371844925839E+02    0.32627E-04   -0.13400E-03   576   0.913E-01
  34 F= -.40885637E+02 E0= -.40876597E+02  d E =-.117643E-02  mag=    -0.0000
       N       E                     dE             d eps       ncg     rms          rms(c)
DAV:   1    -0.371838485177E+02    0.67669E-03   -0.18839E-02  1136   0.135E+00    0.538E-02
DAV:   2    -0.371853724488E+02   -0.15239E-02   -0.20872E-02   544   0.347E+00    0.138E-01
DAV:   3    -0.371837614592E+02    0.16110E-02   -0.15126E-02   528   0.299E+00    0.260E-02
DAV:   4    -0.371837985250E+02   -0.37066E-04   -0.35885E-04   528   0.410E-01
  35 F= -.40885432E+02 E0= -.40876297E+02  d E =-.971593E-03  mag=    -0.0000
       N       E                     dE             d eps       ncg     rms          rms(c)
DAV:   1    -0.371842811809E+02   -0.51972E-03   -0.12891E-02  1016   0.661E-01    0.156E-02
DAV:   2    -0.371842961469E+02   -0.14966E-04   -0.22683E-04   432   0.414E-01
  36 F= -.40885512E+02 E0= -.40876463E+02  d E =-.105202E-02  mag=    -0.0000
       N       E                     dE             d eps       ncg     rms          rms(c)
DAV:   1    -0.371873913129E+02   -0.31101E-02   -0.91764E-01   752   0.394E+00    0.773E-02
DAV:   2    -0.371890243986E+02   -0.16331E-02   -0.17692E-02  1080   0.138E+00    0.824E-02
DAV:   3    -0.371889664998E+02    0.57899E-04   -0.34321E-03   720   0.149E+00    0.730E-02
DAV:   4    -0.371888949873E+02    0.71512E-04   -0.11736E-03   480   0.843E-01
  37 F= -.40886786E+02 E0= -.40877687E+02  d E =-.127372E-02  mag=    -0.0000
       N       E                     dE             d eps       ncg     rms          rms(c)
DAV:   1    -0.371910191415E+02   -0.20526E-02   -0.41561E-01   760   0.272E+00    0.784E-02
DAV:   2    -0.371918707241E+02   -0.85158E-03   -0.96101E-03  1312   0.189E+00    0.100E-01
DAV:   3    -0.371915807854E+02    0.28994E-03   -0.40290E-03   712   0.171E+00    0.647E-02
DAV:   4    -0.371915491904E+02    0.31595E-04   -0.15984E-03   480   0.994E-01
  38 F= -.40887226E+02 E0= -.40878187E+02  d E =-.171390E-02  mag=    -0.0000
       N       E                     dE             d eps       ncg     rms          rms(c)
DAV:   1    -0.371932739962E+02   -0.16932E-02   -0.16437E+00   776   0.532E+00    0.109E-01
DAV:   2    -0.371963167494E+02   -0.30428E-02   -0.32712E-02  1072   0.211E+00    0.129E-01
DAV:   3    -0.371960499018E+02    0.26685E-03   -0.51515E-03   992   0.184E+00    0.975E-02
DAV:   4    -0.371960190655E+02    0.30836E-04   -0.20370E-03   624   0.110E+00    0.829E-02
DAV:   5    -0.371960173292E+02    0.17363E-05   -0.21540E-03   520   0.122E+00    0.721E-02
DAV:   6    -0.371958599007E+02    0.15743E-03   -0.96427E-04   504   0.803E-01
  39 F= -.40887159E+02 E0= -.40878024E+02  d E =-.164699E-02  mag=    -0.0000
       N       E                     dE             d eps       ncg     rms          rms(c)
DAV:   1    -0.371944085495E+02    0.16088E-02   -0.16501E-01   752   0.167E+00    0.340E-02
DAV:   2    -0.371946855221E+02   -0.27697E-03   -0.30180E-03  1008   0.509E-01    0.393E-02
DAV:   3    -0.371946686857E+02    0.16836E-04   -0.24086E-04   456   0.402E-01
  40 F= -.40887344E+02 E0= -.40878237E+02  d E =-.183174E-02  mag=    -0.0000
       N       E                     dE             d eps       ncg     rms          rms(c)
DAV:   1    -0.371960332488E+02   -0.13477E-02   -0.12261E-01   760   0.145E+00    0.305E-02
DAV:   2    -0.371962946209E+02   -0.26137E-03   -0.30807E-03   944   0.104E+00    0.421E-02
DAV:   3    -0.371962332907E+02    0.61330E-04   -0.25922E-03   704   0.111E+00    0.208E-02
DAV:   4    -0.371962385678E+02   -0.52772E-05   -0.24777E-04   440   0.361E-01
  41 F= -.40887572E+02 E0= -.40878403E+02  d E =-.227889E-03  mag=    -0.0000
       N       E                     dE             d eps       ncg     rms          rms(c)
DAV:   1    -0.371981454341E+02   -0.19121E-02   -0.26145E-01   760   0.207E+00    0.403E-02
DAV:   2    -0.371985737365E+02   -0.42830E-03   -0.46434E-03   976   0.505E-01    0.434E-02
DAV:   3    -0.371985600349E+02    0.13702E-04   -0.33987E-04   440   0.457E-01
  42 F= -.40887949E+02 E0= -.40878797E+02  d E =-.605143E-03  mag=    -0.0000
       N       E                     dE             d eps       ncg     rms          rms(c)
DAV:   1    -0.372013377660E+02   -0.27640E-02   -0.10477E+00   760   0.415E+00    0.904E-02
DAV:   2    -0.372030475634E+02   -0.17098E-02   -0.19165E-02  1024   0.139E+00    0.974E-02
DAV:   3    -0.372029789141E+02    0.68649E-04   -0.30960E-03   688   0.140E+00    0.857E-02
DAV:   4    -0.372029039823E+02    0.74932E-04   -0.12123E-03   464   0.853E-01
  43 F= -.40888415E+02 E0= -.40879222E+02  d E =-.107063E-02  mag=    -0.0000
       N       E                     dE             d eps       ncg     rms          rms(c)
DAV:   1    -0.372037985000E+02   -0.81959E-03   -0.21824E-02  1072   0.119E+00    0.610E-02
DAV:   2    -0.372046575542E+02   -0.85905E-03   -0.86461E-03   528   0.271E+00    0.127E-01
DAV:   3    -0.372037390683E+02    0.91849E-03   -0.78698E-03   520   0.239E+00    0.425E-02
DAV:   4    -0.372036603026E+02    0.78766E-04   -0.15490E-03   480   0.967E-01
  44 F= -.40888823E+02 E0= -.40879687E+02  d E =-.408529E-03  mag=    -0.0000
       N       E                     dE             d eps       ncg     rms          rms(c)
DAV:   1    -0.372045038969E+02   -0.76483E-03   -0.40448E-02   784   0.889E-01    0.277E-02
DAV:   2    -0.372045593228E+02   -0.55426E-04   -0.74167E-04   648   0.316E-01
  45 F= -.40889263E+02 E0= -.40880185E+02  d E =-.848531E-03  mag=    -0.0000
       N       E                     dE             d eps       ncg     rms          rms(c)
DAV:   1    -0.372051466627E+02   -0.64277E-03   -0.15922E-01   808   0.178E+00    0.670E-02
DAV:   2    -0.372058271074E+02   -0.68044E-03   -0.95783E-03   880   0.217E+00    0.957E-02
DAV:   3    -0.372053119540E+02    0.51515E-03   -0.83702E-03   832   0.205E+00    0.482E-02
DAV:   4    -0.372053600221E+02   -0.48068E-04   -0.86860E-04   632   0.572E-01
  46 F= -.40889198E+02 E0= -.40879990E+02  d E =-.783077E-03  mag=    -0.0000
       N       E                     dE             d eps       ncg     rms          rms(c)
DAV:   1    -0.372049268856E+02    0.38507E-03   -0.66767E-02   880   0.125E+00    0.342E-02
DAV:   2    -0.372050849853E+02   -0.15810E-03   -0.17387E-03   720   0.110E+00
  47 F= -.40889475E+02 E0= -.40880121E+02  d E =-.106068E-02  mag=    -0.0000
       N       E                     dE             d eps       ncg     rms          rms(c)
DAV:   1    -0.372052194080E+02   -0.29252E-03   -0.16912E-02  1064   0.111E+00    0.112E-02
DAV:   2    -0.372053952337E+02   -0.17583E-03   -0.24121E-03   520   0.115E+00    0.447E-02
DAV:   3    -0.372052251616E+02    0.17007E-03   -0.16039E-03   496   0.947E-01
  48 F= -.40889336E+02 E0= -.40880199E+02  d E =-.921276E-03  mag=    -0.0000
       N       E                     dE             d eps       ncg     rms          rms(c)
DAV:   1    -0.372051006824E+02    0.29455E-03   -0.67521E-03   752   0.352E-01    0.145E-02
DAV:   2    -0.372051091312E+02   -0.84488E-05   -0.10802E-04   440   0.295E-01
  49 F= -.40889401E+02 E0= -.40880224E+02  d E =-.985925E-03  mag=    -0.0000
       N       E                     dE             d eps       ncg     rms          rms(c)
DAV:   1    -0.372055715573E+02   -0.47087E-03   -0.64034E-02   792   0.108E+00    0.230E-02
DAV:   2    -0.372056890772E+02   -0.11752E-03   -0.12717E-03   832   0.345E-01
  50 F= -.40889797E+02 E0= -.40880684E+02  d E =-.396317E-03  mag=    -0.0000
       N       E                     dE             d eps       ncg     rms          rms(c)
DAV:   1    -0.372058983049E+02   -0.32675E-03   -0.17255E-02   936   0.617E-01    0.217E-02
DAV:   2    -0.372059345942E+02   -0.36289E-04   -0.44872E-04   456   0.571E-01
  51 F= -.40889951E+02 E0= -.40880931E+02  d E =-.550615E-03  mag=    -0.0000
       N       E                     dE             d eps       ncg     rms          rms(c)
DAV:   1    -0.372061616668E+02   -0.26336E-03   -0.67176E-02   936   0.121E+00    0.314E-02
DAV:   2    -0.372063663993E+02   -0.20473E-03   -0.27262E-03   720   0.124E+00    0.548E-02
DAV:   3    -0.372061891364E+02    0.17726E-03   -0.21144E-03   512   0.110E+00    0.206E-02
DAV:   4    -0.372062066166E+02   -0.17480E-04   -0.25173E-04   456   0.396E-01
  52 F= -.40890043E+02 E0= -.40880792E+02  d E =-.642226E-03  mag=    -0.0000
       N       E                     dE             d eps       ncg     rms          rms(c)
DAV:   1    -0.372062572198E+02   -0.68083E-04   -0.40582E-03  1000   0.458E-01    0.960E-03
DAV:   2    -0.372062613944E+02   -0.41745E-05   -0.64710E-05   392   0.231E-01
  53 F= -.40890055E+02 E0= -.40880875E+02  d E =-.654355E-03  mag=    -0.0000
       N       E                     dE             d eps       ncg     rms          rms(c)
DAV:   1    -0.372062111496E+02    0.46070E-04   -0.45863E-04   504   0.258E-01    0.141E-02
DAV:   2    -0.372062735356E+02   -0.62386E-04   -0.80364E-04   440   0.759E-01
  54 F= -.40890086E+02 E0= -.40880916E+02  d E =-.685101E-03  mag=    -0.0000
       N       E                     dE             d eps       ncg     rms          rms(c)
DAV:   1    -0.372062529728E+02   -0.41823E-04   -0.78549E-04   536   0.645E-01    0.781E-03
DAV:   2    -0.372062919033E+02   -0.38930E-04   -0.53220E-04   448   0.503E-01
  55 F= -.40890086E+02 E0= -.40880959E+02  d E =-.685520E-03  mag=    -0.0000
       N       E                     dE             d eps       ncg     rms          rms(c)
DAV:   1    -0.372062465328E+02    0.64400E-05   -0.37363E-04   440   0.467E-01    0.452E-03
DAV:   2    -0.372062510090E+02   -0.44762E-05   -0.40404E-05   416   0.170E-01
  56 F= -.40890054E+02 E0= -.40880852E+02  d E =-.653597E-03  mag=    -0.0000
       N       E                     dE             d eps       ncg     rms          rms(c)
DAV:   1    -0.372062556158E+02   -0.90830E-05   -0.35615E-05   360   0.154E-01    0.252E-03
DAV:   2    -0.372062632455E+02   -0.76296E-05   -0.10083E-04   360   0.252E-01
  57 F= -.40890063E+02 E0= -.40880894E+02  d E =-.662507E-03  mag=    -0.0000
       N       E                     dE             d eps       ncg     rms          rms(c)
DAV:   1    -0.372062556619E+02   -0.46117E-07   -0.71178E-05   360   0.209E-01    0.738E-04
DAV:   2    -0.372062569026E+02   -0.12406E-05   -0.10691E-05   392   0.321E-02
  58 F= -.40890057E+02 E0= -.40880879E+02  d E =-.656338E-03  mag=    -0.0000
       N       E                     dE             d eps       ncg     rms          rms(c)
DAV:   1    -0.372062574293E+02   -0.17674E-05   -0.54766E-06   360   0.340E-02    0.108E-03
DAV:   2    -0.372062576335E+02   -0.20421E-06   -0.18058E-06   368   0.198E-02
  59 F= -.40890058E+02 E0= -.40880874E+02  d E =-.656992E-03  mag=    -0.0000
       N       E                     dE             d eps       ncg     rms          rms(c)
DAV:   1    -0.372062577574E+02   -0.32811E-06   -0.11970E-06   360   0.198E-02    0.958E-04
DAV:   2    -0.372062578667E+02   -0.10925E-06   -0.10040E-06   360   0.291E-02
  60 F= -.40890058E+02 E0= -.40880873E+02  d E =-.657177E-03  mag=    -0.0000
       N       E                     dE             d eps       ncg     rms          rms(c)
DAV:   1    -0.372062578693E+02   -0.11192E-06   -0.10942E-06   360   0.280E-02    0.597E-04
DAV:   2    -0.372062583719E+02   -0.50259E-06   -0.63239E-06   360   0.617E-02
  61 F= -.40890058E+02 E0= -.40880872E+02  d E =-.657658E-03  mag=    -0.0000
       N       E                     dE             d eps       ncg     rms          rms(c)
DAV:   1    -0.372062578970E+02   -0.27707E-07   -0.45106E-06   360   0.521E-02    0.195E-04
DAV:   2    -0.372062579363E+02   -0.39267E-07   -0.26646E-07   360   0.624E-03
  62 F= -.40890058E+02 E0= -.40880878E+02  d E =-.657210E-03  mag=    -0.0000
       N       E                     dE             d eps       ncg     rms          rms(c)
DAV:   1    -0.372062579572E+02   -0.60156E-07   -0.22197E-07   360   0.858E-03    0.201E-04
DAV:   2    -0.372062579810E+02   -0.23791E-07   -0.92771E-08   360   0.662E-03
  63 F= -.40890058E+02 E0= -.40880876E+02  d E =-.657249E-03  mag=    -0.0000
       N       E                     dE             d eps       ncg     rms          rms(c)
DAV:   1    -0.372062579885E+02   -0.31363E-07   -0.87921E-08   360   0.711E-03    0.123E-04
DAV:   2    -0.372062580145E+02   -0.25968E-07   -0.20777E-07   360   0.110E-02
  64 F= -.40890058E+02 E0= -.40880876E+02  d E =-.657279E-03  mag=    -0.0000
       N       E                     dE             d eps       ncg     rms          rms(c)
DAV:   1    -0.372062580041E+02   -0.15581E-07   -0.13838E-07   360   0.935E-03    0.580E-05
DAV:   2    -0.372062580195E+02   -0.15363E-07   -0.68449E-08   360   0.162E-03
  65 F= -.40890058E+02 E0= -.40880877E+02  d E =-.657282E-03  mag=    -0.0000
       N       E                     dE             d eps       ncg     rms          rms(c)
DAV:   1    -0.372062580224E+02   -0.18284E-07   -0.14140E-08   360   0.141E-03    0.943E-05
DAV:   2    -0.372062580301E+02   -0.76379E-08   -0.49285E-09   360   0.956E-04
  66 F= -.40890058E+02 E0= -.40880877E+02  d E =-.657292E-03  mag=    -0.0000
       N       E                     dE             d eps       ncg     rms          rms(c)
DAV:   1    -0.372062580331E+02   -0.10685E-07   -0.12285E-08   360   0.276E-03    0.105E-04
DAV:   2    -0.372062580465E+02   -0.13444E-07   -0.10519E-07   360   0.834E-03
  67 F= -.40890058E+02 E0= -.40880877E+02  d E =-.657308E-03  mag=    -0.0000
       N       E                     dE             d eps       ncg     rms          rms(c)
DAV:   1    -0.372043376290E+02    0.19204E-02   -0.47736E-01   776   0.285E+00    0.522E-02
DAV:   2    -0.372051927983E+02   -0.85517E-03   -0.89369E-03  1152   0.109E+00    0.631E-02
DAV:   3    -0.372051270399E+02    0.65758E-04   -0.14490E-03   728   0.101E+00
  68 F= -.40889419E+02 E0= -.40880352E+02  d E =-.179087E-04  mag=    -0.0000
