 vasp.6.3.2 27Jun22 (build Aug 17 2022 15:43:34) complex                        
  
 executed on           tv2STDVTST date 2025.02.04  14:30:01
 running   20 mpi-ranks, with    1 threads/rank
 distrk:  each k-point on   20 cores,    1 groups
 distr:  one band on NCORE=   5 cores,    4 groups


--------------------------------------------------------------------------------------------------------


 -----------------------------------------------------------------------------
|                                                                             |
|           W    W    AA    RRRRR   N    N  II  N    N   GGGG   !!!           |
|           W    W   A  A   R    R  NN   N  II  NN   N  G    G  !!!           |
|           W    W  A    A  R    R  N N  N  II  N N  N  G       !!!           |
|           W WW W  AAAAAA  RRRRR   N  N N  II  N  N N  G  GGG   !            |
|           WW  WW  A    A  R   R   N   NN  II  N   NN  G    G                |
|           W    W  A    A  R    R  N    N  II  N    N   GGGG   !!!           |
|                                                                             |
|     Found issues when parsing the INCAR file                                |
|     In line 61: Tagname --- R W I G S contains invalid characters.          |
|     Please check if the interpretation in the OUTCAR file is correct.       |
|                                                                             |
 -----------------------------------------------------------------------------

 INCAR:
    = \=\=\=\=\=\=\=\=\=\=\=\=\=\=\=\=\=\=\=\=\=\=\=\=\=\=\=\=\=\=\=\=\=\=\=\=\=\=\=\=\=\=\=\=\=\=\=\=\=\=\=\=\=\=\=\=\=\=\=\=\=\=\=\=\=\=\=\=\=\=\=\=
    = \=\=\=\=\=\=\=\=\=\=\=\=\=\=\=\=\=\=\=\=\=\=\=\=\=\=\=\=\=\=\=\=\=\=\=\=\=\=\=\=\=\=\=\=\=\=\=\=\=\=\=\=\=\=\=\=\=\=\=\=\=\=\=\=\=\=\=\=\=\=\=\=
   ISTART = 0
   ICHARG = 2
   IPIPOL = 3
   IVDW = 11
    = \=\=\=\=\=\=\=\=\=\=\=\=\=\=\=\=\=\=\=\=\=\=\=\=\=\=\=\=\=\=\=\=\=\=\=\=\=\=\=\=\=\=\=\=\=\=\=\=\=\=\=\=\=\=\=\=\=\=\=\=\=\=\=\=\=\=\=\=\=\=\=\=
    = \=\=\=\=\=\=\=\=\=\=\=\=\=\=\=\=\=\=\=\=\=\=\=\=\=\=\=\=\=\=\=\=\=\=\=\=\=\=\=\=\=\=\=\=\=\=\=\=\=\=\=\=\=\=\=\=\=\=\=\=\=\=\=\=\=\=\=\=\=\=\=\=
   ISPIN = 2
    = \=\=\=\=\=\=\=\=\=\=\=\=\=\=\=\=\=\=\=\=\=\=\=\=\=\=\=\=\=\=\=\=\=\=\=\=\=\=\=\=\=\=\=\=\=\=\=\=\=\=\=\=\=\=\=\=\=\=\=\=\=\=\=\=\=\=\=\=\=\=\=\=
    = \=\=\=\=\=\=\=\=\=\=\=\=\=\=\=\=\=\=\=\=\=\=\=\=\=\=\=\=\=\=\=\=\=\=\=\=\=\=\=\=\=\=\=\=\=\=\=\=\=\=\=\=\=\=\=\=\=\=\=\=\=\=\=\=\=\=\=\=\=\=\=\=
   ENCUT = 400
   PREC = Normal
   EDIFF = 2E-04
   GGA = PE
   ISMEAR = 1
   SIGMA = 0.2
   LREAL = .FALSE.
    = \=\=\=\=\=\=\=\=\=\=\=\=\=\=\=\=\=\=\=\=\=\=\=\=\=\=\=\=\=\=\=\=\=\=\=\=\=\=\=\=\=\=\=\=\=\=\=\=\=\=\=\=\=\=\=\=\=\=\=\=\=\=\=\=\=\=\=\=\=\=\=\=
    = \=\=\=\=\=\=\=\=\=\=\=\=\=\=\=\=\=\=\=\=\=\=\=\=\=\=\=\=\=\=\=\=\=\=\=\=\=\=\=\=\=\=\=\=\=\=\=\=\=\=\=\=\=\=\=\=\=\=\=\=\=\=\=\=\=\=\=\=\=\=\=\=
   ISYM = 1
   NSW = 800
   IBRION = 2
   POTIM = 0.5
   ISIF = 2
   EDIFFG = -.03
    = \=\=\=\=\=\=\=\=\=\=\=\=\=\=\=\=\=\=\=\=\=\=\=\=\=\=\=\=\=\=\=\=\=\=\=\=\=\=\=\=\=\=\=\=\=\=\=\=\=\=\=\=\=\=\=\=\=\=\=\=\=\=\=\=\=\=\=\=\=\=\=\=
    = \=\=\=\=\=\=\=\=\=\=\=\=\=\=\=\=\=\=\=\=\=\=\=\=\=\=\=\=\=\=\=\=\=\=\=\=\=\=\=\=\=\=\=\=\=\=\=\=\=\=\=\=\=\=\=\=\=\=\=\=\=\=\=\=\=\=\=\=\=\=\=\=
   NPAR = 4
   LWAVE = .FALSE.
   LCHARG = .FALSE.

 POTCAR:    PAW_PBE Cu 22Jun2005                  
 POTCAR:    PAW_PBE H 15Jun2001                   
 -----------------------------------------------------------------------------
|                                                                             |
|           W    W    AA    RRRRR   N    N  II  N    N   GGGG   !!!           |
|           W    W   A  A   R    R  NN   N  II  NN   N  G    G  !!!           |
|           W    W  A    A  R    R  N N  N  II  N N  N  G       !!!           |
|           W WW W  AAAAAA  RRRRR   N  N N  II  N  N N  G  GGG   !            |
|           WW  WW  A    A  R   R   N   NN  II  N   NN  G    G                |
|           W    W  A    A  R    R  N    N  II  N    N   GGGG   !!!           |
|                                                                             |
|     You use a magnetic or noncollinear calculation, but did not specify     |
|     the initial magnetic moment with the MAGMOM tag. Note that a            |
|     default of 1 will be used for all atoms. This ferromagnetic setup       |
|     may break the symmetry of the crystal, in particular it may rule        |
|     out finding an antiferromagnetic solution. Thence, we recommend         |
|     setting the initial magnetic moment manually or verifying carefully     |
|     that this magnetic setup is desired.                                    |
|                                                                             |
 -----------------------------------------------------------------------------

 POTCAR:    PAW_PBE Cu 22Jun2005                  
   SHA256 =  0e71e558f37a4e8407882b4609ceaae59938afaad9ced71dfe8490308a0ab630 Cu/POTCAR             
   COPYR  = (c) Copyright 22Jun2005 Georg Kresse                                                    
   COPYR  = This file is part of the software VASP. Any use, copying, and all other rights are regul
   COPYR  = If you do not have a valid VASP license, you may not use, copy or distribute this file. 
   VRHFIN =Cu: d10 p1                                                                               
   LEXCH  = PE                                                                                      
   EATOM  =  1390.9808 eV,  102.2342 Ry                                                             
                                                                                                    
   TITEL  = PAW_PBE Cu 22Jun2005                                                                    
   LULTRA =        F    use ultrasoft PP ?                                                          
   IUNSCR =        1    unscreen: 0-lin 1-nonlin 2-no                                               
   RPACOR =    2.000    partial core radius                                                         
   POMASS =   63.546; ZVAL   =   11.000    mass and valenz                                          
   RCORE  =    2.300    outmost cutoff radius                                                       
   RWIGS  =    2.200; RWIGS  =    1.164    wigner-seitz radius (au A)                               
   ENMAX  =  295.446; ENMIN  =  221.585 eV                                                          
   ICORE  =        3    local potential                                                             
   LCOR   =        T    correct aug charges                                                         
   LPAW   =        T    paw PP                                                                      
   EAUG   =  586.980                                                                                
   DEXC   =    0.000                                                                                
   RMAX   =    2.344    core radius for proj-oper                                                   
   RAUG   =    1.300    factor for augmentation sphere                                              
   RDEP   =    2.302    radius for radial grids                                                     
   RDEPT  =    1.771    core radius for aug-charge                                                  
                                                                                                    
   Atomic configuration                                                                             
    9 entries                                                                                       
     n  l   j            E        occ.                                                              
     1  0  0.50     -8850.2468   2.0000                                                             
     2  0  0.50     -1062.3498   2.0000                                                             
     2  1  1.50      -916.8226   6.0000                                                             
     3  0  0.50      -114.6929   2.0000                                                             
     3  1  1.50       -72.1325   6.0000                                                             
     3  2  2.50        -5.0394  10.0000                                                             
     4  0  0.50        -4.6097   1.0000                                                             
     4  1  0.50        -4.0817   0.0000                                                             
     4  3  2.50        -1.3606   0.0000                                                             
   Description                                                                                      
     l       E           TYP  RCUT    TYP  RCUT                                                     
     2     -5.0393973     23  2.200                                                                 
     2     10.8846608     23  2.200                                                                 
     0     -4.6097109     23  2.200                                                                 
     0      8.2520465     23  2.200                                                                 
     1     -2.7211652     23  2.200                                                                 
     1     21.7055443     23  2.200                                                                 
     3      2.7211652     23  2.300                                                                 
  local pseudopotential read in
  partial core-charges read in
  partial kinetic energy density read in
  atomic valenz-charges read in
  non local Contribution for L=           2  read in
    real space projection operators read in
  non local Contribution for L=           2  read in
    real space projection operators read in
  non local Contribution for L=           0  read in
    real space projection operators read in
  non local Contribution for L=           0  read in
    real space projection operators read in
  non local Contribution for L=           1  read in
    real space projection operators read in
  non local Contribution for L=           1  read in
    real space projection operators read in
    PAW grid and wavefunctions read in
 
   number of l-projection  operators is LMAX  =           6
   number of lm-projection operators is LMMAX =          18
 
 POTCAR:    PAW_PBE H 15Jun2001                   
   SHA256 =  030f79b5d3ab3cf0e668861823c8fb652ff669f3e15e46930bd03bfd63a607b6 H/POTCAR              
   COPYR  = (c) Copyright 15Jun2001 Georg Kresse                                                    
   COPYR  = This file is part of the software VASP. Any use, copying, and all other rights are regul
   COPYR  = If you do not have a valid VASP license, you may not use, copy or distribute this file. 
   VRHFIN =H: ultrasoft test                                                                        
   LEXCH  = PE                                                                                      
   EATOM  =    12.4884 eV,    0.9179 Ry                                                             
                                                                                                    
   TITEL  = PAW_PBE H 15Jun2001                                                                     
   LULTRA =        F    use ultrasoft PP ?                                                          
   IUNSCR =        0    unscreen: 0-lin 1-nonlin 2-no                                               
   RPACOR =    0.000    partial core radius                                                         
   POMASS =    1.000; ZVAL   =    1.000    mass and valenz                                          
   RCORE  =    1.100    outmost cutoff radius                                                       
   RWIGS  =    0.700; RWIGS  =    0.370    wigner-seitz radius (au A)                               
   ENMAX  =  250.000; ENMIN  =  200.000 eV                                                          
   RCLOC  =    0.701    cutoff for local pot                                                        
   LCOR   =        T    correct aug charges                                                         
   LPAW   =        T    paw PP                                                                      
   EAUG   =  400.000                                                                                
   RMAX   =    1.123    core radius for proj-oper                                                   
   RAUG   =    1.200    factor for augmentation sphere                                              
   RDEP   =    1.112    radius for radial grids                                                     
   RDEPT  =    0.926    core radius for aug-charge                                                  
                                                                                                    
   Atomic configuration                                                                             
    2 entries                                                                                       
     n  l   j            E        occ.                                                              
     1  0  0.50        -6.4927   1.0000                                                             
     2  1  0.50        -3.4015   0.0000                                                             
   Description                                                                                      
     l       E           TYP  RCUT    TYP  RCUT                                                     
     0     -6.4927494     23  1.100                                                                 
     0      6.8029130     23  1.100                                                                 
     1     -4.0817478     23  1.100                                                                 
  local pseudopotential read in
  atomic valenz-charges read in
  non local Contribution for L=           0  read in
    real space projection operators read in
  non local Contribution for L=           0  read in
    real space projection operators read in
  non local Contribution for L=           1  read in
    real space projection operators read in
    PAW grid and wavefunctions read in
 
   number of l-projection  operators is LMAX  =           3
   number of lm-projection operators is LMMAX =           5
 
  PAW_PBE Cu 22Jun2005                  :
 energy of atom  1       EATOM=-1390.9808
 kinetic energy error for atom=    0.0232 (will be added to EATOM!!)
  PAW_PBE H 15Jun2001                   :
 energy of atom  2       EATOM=  -12.4884
 kinetic energy error for atom=    0.0098 (will be added to EATOM!!)
 
 
 POSCAR: FCC Cu
  positions in cartesian coordinates
  No initial velocities read in
 exchange correlation table for  LEXCH =        8
   RHO(1)=    0.500       N(1)  =     2000
   RHO(2)=  100.500       N(2)  =     4000

 VTST: version 4.2, (08/11/21)

 CHAIN: initializing optimizer
 
 OPT: Using VASP Conjugate-Gradient optimizer
 CHAIN: Read ICHAIN            0
 
 POSCAR: FCC Cu
  positions in cartesian coordinates
  No initial velocities read in
 


--------------------------------------------------------------------------------------------------------


 ion  position               nearest neighbor table
   1  0.000  0.000  0.000-   2 2.57   2 2.57   2 2.57
   2  0.333  0.333  0.071-   3 2.51   3 2.51   3 2.51   1 2.57   1 2.57   1 2.57
   3  0.667  0.667  0.139-   2 2.51   2 2.51   2 2.51   4 2.53   4 2.53   4 2.53
   4  0.000  0.000  0.208-   5 2.51   5 2.51   5 2.51   3 2.53   3 2.53   3 2.53
   5  0.333  0.333  0.277-   4 2.51   4 2.51   4 2.51   6 2.53   6 2.53   6 2.53
   6  0.667  0.667  0.346-   7 2.51   7 2.51   7 2.51   5 2.53   5 2.53   5 2.53
   7  0.000  0.000  0.414-   8 2.49   8 2.49   8 2.49   6 2.51   6 2.51   6 2.51
   8  0.333  0.333  0.481-   9 1.57   7 2.49   7 2.49   7 2.49
   9  0.333  0.333  0.534-  10 0.75   8 1.57
  10  0.333  0.333  0.559-   9 0.75
 
  LATTYP: Found a hexagonal cell.
 ALAT       =     2.5667977333
 C/A-ratio  =    11.5593335643
  
  Lattice vectors:
  
 A1 = (  -1.2833988667,  -2.2229120434,   0.0000000000)
 A2 = (   2.5667977333,   0.0000000000,   0.0000000000)
 A3 = (   0.0000000000,   0.0000000000,  29.6704711914)


Analysis of symmetry for initial positions (statically):
=====================================================================
 Subroutine PRICEL returns:
 Original cell was already a primitive cell.
 

 Routine SETGRP: Setting up the symmetry group for a 
 hexagonal supercell.


 Subroutine GETGRP returns: Found  6 space group operations
 (whereof  6 operations were pure point group operations)
 out of a pool of 24 trial point group operations.


The static configuration has the point symmetry C_3v.


Analysis of symmetry for dynamics (positions and initial velocities):
=====================================================================
 Subroutine PRICEL returns:
 Original cell was already a primitive cell.
 

 Routine SETGRP: Setting up the symmetry group for a 
 hexagonal supercell.


 Subroutine GETGRP returns: Found  6 space group operations
 (whereof  6 operations were pure point group operations)
 out of a pool of 24 trial point group operations.


The dynamic configuration has the point symmetry C_3v.


Analysis of structural, dynamic, and magnetic symmetry:
=====================================================================
 Subroutine PRICEL returns:
 Original cell was already a primitive cell.
 

 Routine SETGRP: Setting up the symmetry group for a 
 hexagonal supercell.


 Subroutine GETGRP returns: Found  6 space group operations
 (whereof  6 operations were pure point group operations)
 out of a pool of 24 trial point group operations.


The overall configuration has the point symmetry C_3v.


 Subroutine INISYM returns: Found  6 space group operations
 (whereof  6 operations are pure point group operations),
 and found     1 'primitive' translations


----------------------------------------------------------------------------------------

                                     Primitive cell                                     

  volume of cell :     169.2928

  direct lattice vectors                    reciprocal lattice vectors
     2.566797733  0.000000000  0.000000000     0.389590495 -0.224930177  0.000000000
     1.283398867  2.222912043  0.000000000     0.000000000  0.449860355  0.000000000
     0.000000000  0.000000000 29.670471191     0.000000000  0.000000000  0.033703543

  length of vectors
     2.566797733  2.566797733 29.670471191     0.449860355  0.449860355  0.033703543

  position of ions in fractional coordinates (direct lattice)
     0.000000000  0.000000000  0.000000000
     0.333333333  0.333333333  0.070635264
     0.666666667  0.666666667  0.139085938
     0.000000000  0.000000000  0.208165116
     0.333333333  0.333333333  0.276562395
     0.666666667  0.666666667  0.345560339
     0.000000000  0.000000000  0.414005934
     0.333333333  0.333333333  0.481392695
     0.333333334  0.333333333  0.534259303
     0.333333334  0.333333333  0.559402146

  ion indices of the primitive-cell ions
   primitive index   ion index
                 1           1
                 2           2
                 3           3
                 4           4
                 5           5
                 6           6
                 7           7
                 8           8
                 9           9
                10          10

----------------------------------------------------------------------------------------

 
 
 KPOINTS: Auto-mesh                               

Automatic generation of k-mesh.
 Grid dimensions read from file:
 generate k-points for:    3    3    1

 Generating k-lattice:

  Cartesian coordinates                     Fractional coordinates (reciprocal lattice)
     0.129863498 -0.074976726  0.000000000     0.333333333  0.000000000  0.000000000
     0.000000000  0.149953452  0.000000000     0.000000000  0.333333333  0.000000000
     0.000000000  0.000000000  0.033703543     0.000000000  0.000000000  1.000000000

  Length of vectors
     0.149953452  0.149953452  0.033703543

  Shift w.r.t. Gamma in fractional coordinates (k-lattice)
     0.000000000  0.000000000  0.000000000

 
 Subroutine IBZKPT returns following result:
 ===========================================
 
 Found      3 irreducible k-points:
 
 Following reciprocal coordinates:
            Coordinates               Weight
  0.000000  0.000000  0.000000      1.000000
  0.333333  0.000000  0.000000      6.000000
 -0.333333  0.333333  0.000000      2.000000
 
 Following cartesian coordinates:
            Coordinates               Weight
  0.000000  0.000000  0.000000      1.000000
  0.129863 -0.074977  0.000000      6.000000
 -0.129863  0.224930  0.000000      2.000000
 


--------------------------------------------------------------------------------------------------------




 Dimension of arrays:
   k-points           NKPTS =      3   k-points in BZ     NKDIM =      3   number of bands    NBANDS=     60
   number of dos      NEDOS =    301   number of ions     NIONS =     10
   non local maximal  LDIM  =      6   non local SUM 2l+1 LMDIM =     18
   total plane-waves  NPLWV =  29400
   max r-space proj   IRMAX =      1   max aug-charges    IRDMAX=   5229
   dimension x,y,z NGX =    14 NGY =   14 NGZ =  150
   dimension x,y,z NGXF=    28 NGYF=   28 NGZF=  300
   support grid    NGXF=    28 NGYF=   28 NGZF=  300
   ions per type =               8   2
   NGX,Y,Z   is equivalent  to a cutoff of   9.07,  9.07,  8.40 a.u.
   NGXF,Y,Z  is equivalent  to a cutoff of  18.13, 18.13, 16.81 a.u.

 SYSTEM =  unknown system                          
 POSCAR =  FCC Cu                                  

 Startparameter for this run:
   NWRITE =      2    write-flag & timer
   PREC   = normal    normal or accurate (medium, high low for compatibility)
   ISTART =      0    job   : 0-new  1-cont  2-samecut
   ICHARG =      2    charge: 1-file 2-atom 10-const
   ISPIN  =      2    spin polarized calculation?
   LNONCOLLINEAR =      F non collinear calculations
   LSORBIT =      F    spin-orbit coupling
   INIWAV =      1    electr: 0-lowe 1-rand  2-diag
   LASPH  =      F    aspherical Exc in radial PAW
 Electronic Relaxation 1
   ENCUT  =  400.0 eV  29.40 Ry    5.42 a.u.   4.19  4.19 48.39*2*pi/ulx,y,z
   ENINI  =  400.0     initial cutoff
   ENAUG  =  587.0 eV  augmentation charge cutoff
   NELM   =     60;   NELMIN=  2; NELMDL= -5     # of ELM steps 
   EDIFF  = 0.2E-03   stopping-criterion for ELM
   LREAL  =      F    real-space projection
   NLSPLINE    = F    spline interpolate recip. space projectors
   LCOMPAT=      F    compatible to vasp.4.4
   GGA_COMPAT  = T    GGA compatible to vasp.4.4-vasp.4.6
   LMAXPAW     = -100 max onsite density
   LMAXMIX     =    2 max onsite mixed and CHGCAR
   VOSKOWN=      0    Vosko Wilk Nusair interpolation
   ROPT   =    0.00000   0.00000
 Ionic relaxation
   EDIFFG = -.3E-01   stopping-criterion for IOM
   NSW    =    800    number of steps for IOM
   NBLOCK =      1;   KBLOCK =    800    inner block; outer block 
   IBRION =      2    ionic relax: 0-MD 1-quasi-New 2-CG
   NFREE  =      1    steps in history (QN), initial steepest desc. (CG)
   ISIF   =      2    stress and relaxation
   IWAVPR =     11    prediction:  0-non 1-charg 2-wave 3-comb
   ISYM   =      1    0-nonsym 1-usesym 2-fastsym
   LCORR  =      T    Harris-Foulkes like correction to forces

   POTIM  = 0.5000    time-step for ionic-motion
   TEIN   =    0.0    initial temperature
   TEBEG  =    0.0;   TEEND  =   0.0 temperature during run
   SMASS  =  -3.00    Nose mass-parameter (am)
   estimated Nose-frequenzy (Omega)   =  0.10E-29 period in steps = 0.13E+47 mass=  -0.151E-27a.u.
   SCALEE = 1.0000    scale energy and forces
   NPACO  =    256;   APACO  = 10.0  distance and # of slots for P.C.
   PSTRESS=    0.0 pullay stress

  Mass of Ions in am
   POMASS =  63.55  1.00
  Ionic Valenz
   ZVAL   =  11.00  1.00
  Atomic Wigner-Seitz radii
   RWIGS  =  -1.00 -1.00
  virtual crystal weights 
   VCA    =   1.00  1.00
   NELECT =      90.0000    total number of electrons
   NUPDOWN=      -1.0000    fix difference up-down

 DOS related values:
   EMIN   =  10.00;   EMAX   =-10.00  energy-range for DOS
   EFERMI =   0.00
   ISMEAR =     1;   SIGMA  =   0.20  broadening in eV -4-tet -1-fermi 0-gaus

 Electronic relaxation 2 (details)
   IALGO  =     38    algorithm
   LDIAG  =      T    sub-space diagonalisation (order eigenvalues)
   LSUBROT=      F    optimize rotation matrix (better conditioning)
   TURBO    =      0    0=normal 1=particle mesh
   IRESTART =      0    0=no restart 2=restart with 2 vectors
   NREBOOT  =      0    no. of reboots
   NMIN     =      0    reboot dimension
   EREF     =   0.00    reference energy to select bands
   IMIX   =      4    mixing-type and parameters
     AMIX     =   0.40;   BMIX     =  1.00
     AMIX_MAG =   1.60;   BMIX_MAG =  1.00
     AMIN     =   0.10
     WC   =   100.;   INIMIX=   1;  MIXPRE=   1;  MAXMIX= -45

 Intra band minimization:
   WEIMIN = 0.0010     energy-eigenvalue tresh-hold
   EBREAK =  0.83E-06  absolut break condition
   DEPER  =   0.30     relativ break condition  

   TIME   =   0.40     timestep for ELM

  volume/ion in A,a.u.               =      16.93       114.24
  Fermi-wavevector in a.u.,A,eV,Ry     =   1.326202  2.506158 23.930072  1.758811
  Thomas-Fermi vector in A             =   2.455606
 
 Write flags
   LWAVE        =      F    write WAVECAR
   LDOWNSAMPLE  =      F    k-point downsampling of WAVECAR
   LCHARG       =      F    write CHGCAR
   LVTOT        =      F    write LOCPOT, total local potential
   LVHAR        =      F    write LOCPOT, Hartree potential only
   LELF         =      F    write electronic localiz. function (ELF)
   LORBIT       =      0    0 simple, 1 ext, 2 COOP (PROOUT), +10 PAW based schemes


 Dipole corrections
   LMONO  =      F    monopole corrections only (constant potential shift)
   LDIPOL =      F    correct potential (dipole corrections)
   IDIPOL =      0    1-x, 2-y, 3-z, 4-all directions 
   EPSILON=  1.0000000 bulk dielectric constant

 Exchange correlation treatment:
   GGA     =    PE    GGA type
   LEXCH   =     8    internal setting for exchange type
   LIBXC   =     F    Libxc                    
   VOSKOWN =     0    Vosko Wilk Nusair interpolation
   LHFCALC =     F    Hartree Fock is set to
   LHFONE  =     F    Hartree Fock one center treatment
   AEXX    =    0.0000 exact exchange contribution

 Linear response parameters
   LEPSILON=     F    determine dielectric tensor
   LRPA    =     F    only Hartree local field effects (RPA)
   LNABLA  =     F    use nabla operator in PAW spheres
   LVEL    =     F    velocity operator in full k-point grid
   CSHIFT  =0.1000    complex shift for real part using Kramers Kronig
   OMEGAMAX=  -1.0    maximum frequency
   DEG_THRESHOLD= 0.2000000E-02 threshold for treating states as degnerate
   RTIME   =   -0.100 relaxation time in fs
  (WPLASMAI=    0.000 imaginary part of plasma frequency in eV, 0.658/RTIME)
   DFIELD  = 0.0000000 0.0000000 0.0000000 field for delta impulse in time
 
  Optional k-point grid parameters
   LKPOINTS_OPT  =     F    use optional k-point grid
   KPOINTS_OPT_MODE=     1    mode for optional k-point grid
 
 Orbital magnetization related:
   ORBITALMAG=     F  switch on orbital magnetization
   LCHIMAG   =     F  perturbation theory with respect to B field
   DQ        =  0.001000  dq finite difference perturbation B field
   LLRAUG    =     F  two centre corrections for induced B field



--------------------------------------------------------------------------------------------------------


 conjugate gradient relaxation of ions
 charge density and potential will be updated during run
 spin polarized calculation
 Variant of blocked Davidson
 Davidson routine will perform the subspace rotation
 perform sub-space diagonalisation
    after iterative eigenvector-optimisation
 modified Broyden-mixing scheme, WC =      100.0
 initial mixing is a Kerker type mixing with AMIX =  0.4000 and BMIX =      1.0000
 Hartree-type preconditioning will be used
 using additional bands           15
 reciprocal scheme for non local part
 use partial core corrections
 calculate Harris-corrections to forces 
   (improved forces if not selfconsistent)
 use gradient corrections 
 use of overlap-Matrix (Vanderbilt PP)
 Methfessel and Paxton  Order N= 1 SIGMA  =   0.20


--------------------------------------------------------------------------------------------------------


  energy-cutoff  :      400.00
  volume of cell :      169.29
      direct lattice vectors                 reciprocal lattice vectors
     2.566797733  0.000000000  0.000000000     0.389590495 -0.224930177  0.000000000
     1.283398867  2.222912043  0.000000000     0.000000000  0.449860355  0.000000000
     0.000000000  0.000000000 29.670471191     0.000000000  0.000000000  0.033703543

  length of vectors
     2.566797733  2.566797733 29.670471191     0.449860355  0.449860355  0.033703543


 
 k-points in units of 2pi/SCALE and weight: Auto-mesh                               
   0.00000000  0.00000000  0.00000000       0.111
   0.12986350 -0.07497673  0.00000000       0.667
  -0.12986350  0.22493018  0.00000000       0.222
 
 k-points in reciprocal lattice and weights: Auto-mesh                               
   0.00000000  0.00000000  0.00000000       0.111
   0.33333333  0.00000000  0.00000000       0.667
  -0.33333333  0.33333333  0.00000000       0.222
 
 position of ions in fractional coordinates (direct lattice) 
   0.00000000  0.00000000  0.00000000
   0.33333333  0.33333333  0.07063526
   0.66666667  0.66666667  0.13908594
   0.00000000  0.00000000  0.20816512
   0.33333333  0.33333333  0.27656240
   0.66666667  0.66666667  0.34556034
   0.00000000  0.00000000  0.41400593
   0.33333333  0.33333333  0.48139269
   0.33333333  0.33333333  0.53425930
   0.33333333  0.33333333  0.55940215
 
 position of ions in cartesian coordinates  (Angst):
   0.00000000  0.00000000  0.00000000
   1.28339887  0.74097068  2.09578157
   2.56679773  1.48194136  4.12674532
   0.00000000  0.00000000  6.17635708
   1.28339887  0.74097068  8.20573658
   2.56679773  1.48194136 10.25293808
   0.00000000  0.00000000 12.28375114
   1.28339887  0.74097068 14.28314809
   1.28339887  0.74097068 15.85172525
   1.28339887  0.74097068 16.59772525
 


--------------------------------------------------------------------------------------------------------


 k-point   1 :   0.0000 0.0000 0.0000  plane waves:    3091
 k-point   2 :   0.3333 0.0000 0.0000  plane waves:    3081
 k-point   3 :  -0.3333 0.3333 0.0000  plane waves:    3096

 maximum and minimum number of plane-waves per node :       629      605

 maximum number of plane-waves:      3096
 maximum index in each direction: 
   IXMAX=    4   IYMAX=    4   IZMAX=   48
   IXMIN=   -4   IYMIN=   -4   IZMIN=  -48


 parallel 3D FFT for wavefunctions:
    minimum data exchange during FFTs selected (reduces bandwidth)
 parallel 3D FFT for charge:
    minimum data exchange during FFTs selected (reduces bandwidth)


 total amount of memory used by VASP MPI-rank0    34212. kBytes
=======================================================================

   base      :      30000. kBytes
   nonl-proj :        634. kBytes
   fftplans  :        716. kBytes
   grid      :       1856. kBytes
   one-center:         62. kBytes
   wavefun   :        944. kBytes
 
     INWAV:  cpu time      0.0000: real time      0.0004
 Broyden mixing: mesh for mixing (old mesh)
   NGX =  9   NGY =  9   NGZ = 97
  (NGX  = 28   NGY  = 28   NGZ  =300)
  gives a total of   7857 points

 initial charge density was supplied:
 charge density of overlapping atoms calculated
 number of electron      90.0000000 magnetization      10.0000000
 keeping initial charge density in first step


--------------------------------------------------------------------------------------------------------


 Maximum index for augmentation-charges          479 (set IRDMAX)


--------------------------------------------------------------------------------------------------------


 First call to EWALD:  gamma=   0.320
 Maximum number of real-space cells 6x 6x 1
 Maximum number of reciprocal cells 2x 2x13

    FEWALD:  cpu time      0.0019: real time      0.0020


--------------------------------------- Iteration      1(   1)  ---------------------------------------


    POTLOK:  cpu time      0.0224: real time      0.0227
    SETDIJ:  cpu time      0.0069: real time      0.0069
     EDDAV:  cpu time      0.2190: real time      0.2210
       DOS:  cpu time      0.0011: real time      0.0011
    --------------------------------------------
      LOOP:  cpu time      0.2494: real time      0.2517

 eigenvalue-minimisations  :   728
 total energy-change (2. order) : 0.7939379E+03  (-0.3341905E+04)
 number of electron      90.0000000 magnetization      10.0000000
 augmentation part       90.0000000 magnetization      10.0000000

 Free energy of the ion-electron system (eV)
  ---------------------------------------------------
  alpha Z        PSCENC =       285.34744303
  Ewald energy   TEWEN  =     52249.00400961
  -Hartree energ DENC   =    -63299.81833421
  -exchange      EXHF   =         0.00000000
  -V(xc)+E(xc)   XCENC  =       372.63362434
  PAW double counting   =      9828.36862813   -10674.97285505
  entropy T*S    EENTRO =         0.00674673
  eigenvalues    EBANDS =       880.75022555
  atomic energy  EATOM  =     11152.61838693
  Solvation  Ediel_sol  =         0.00000000
  ---------------------------------------------------
  free energy    TOTEN  =       793.93787505 eV

  energy without entropy =      793.93112833  energy(sigma->0) =      793.93562614


--------------------------------------------------------------------------------------------------------




--------------------------------------- Iteration      1(   2)  ---------------------------------------


     EDDAV:  cpu time      0.2062: real time      0.2088
       DOS:  cpu time      0.0007: real time      0.0007
    --------------------------------------------
      LOOP:  cpu time      0.2069: real time      0.2096

 eigenvalue-minimisations  :   720
 total energy-change (2. order) :-0.7221990E+03  (-0.6918923E+03)
 number of electron      90.0000000 magnetization      10.0000000
 augmentation part       90.0000000 magnetization      10.0000000

 Free energy of the ion-electron system (eV)
  ---------------------------------------------------
  alpha Z        PSCENC =       285.34744303
  Ewald energy   TEWEN  =     52249.00400961
  -Hartree energ DENC   =    -63299.81833421
  -exchange      EXHF   =         0.00000000
  -V(xc)+E(xc)   XCENC  =       372.63362434
  PAW double counting   =      9828.36862813   -10674.97285505
  entropy T*S    EENTRO =         0.00943942
  eigenvalues    EBANDS =       158.54850820
  atomic energy  EATOM  =     11152.61838693
  Solvation  Ediel_sol  =         0.00000000
  ---------------------------------------------------
  free energy    TOTEN  =        71.73885040 eV

  energy without entropy =       71.72941098  energy(sigma->0) =       71.73570392


--------------------------------------------------------------------------------------------------------




--------------------------------------- Iteration      1(   3)  ---------------------------------------


     EDDAV:  cpu time      0.2091: real time      0.2109
       DOS:  cpu time      0.0007: real time      0.0007
    --------------------------------------------
      LOOP:  cpu time      0.2098: real time      0.2116

 eigenvalue-minimisations  :   744
 total energy-change (2. order) :-0.1049658E+03  (-0.9892809E+02)
 number of electron      90.0000000 magnetization      10.0000000
 augmentation part       90.0000000 magnetization      10.0000000

 Free energy of the ion-electron system (eV)
  ---------------------------------------------------
  alpha Z        PSCENC =       285.34744303
  Ewald energy   TEWEN  =     52249.00400961
  -Hartree energ DENC   =    -63299.81833421
  -exchange      EXHF   =         0.00000000
  -V(xc)+E(xc)   XCENC  =       372.63362434
  PAW double counting   =      9828.36862813   -10674.97285505
  entropy T*S    EENTRO =         0.02663580
  eigenvalues    EBANDS =        53.56551086
  atomic energy  EATOM  =     11152.61838693
  Solvation  Ediel_sol  =         0.00000000
  ---------------------------------------------------
  free energy    TOTEN  =       -33.22695057 eV

  energy without entropy =      -33.25358636  energy(sigma->0) =      -33.23582917


--------------------------------------------------------------------------------------------------------




--------------------------------------- Iteration      1(   4)  ---------------------------------------


     EDDAV:  cpu time      0.2218: real time      0.2237
       DOS:  cpu time      0.0008: real time      0.0008
    --------------------------------------------
      LOOP:  cpu time      0.2226: real time      0.2245

 eigenvalue-minimisations  :   804
 total energy-change (2. order) :-0.4493816E+01  (-0.4456385E+01)
 number of electron      90.0000000 magnetization      10.0000000
 augmentation part       90.0000000 magnetization      10.0000000

 Free energy of the ion-electron system (eV)
  ---------------------------------------------------
  alpha Z        PSCENC =       285.34744303
  Ewald energy   TEWEN  =     52249.00400961
  -Hartree energ DENC   =    -63299.81833421
  -exchange      EXHF   =         0.00000000
  -V(xc)+E(xc)   XCENC  =       372.63362434
  PAW double counting   =      9828.36862813   -10674.97285505
  entropy T*S    EENTRO =         0.03051076
  eigenvalues    EBANDS =        49.06781985
  atomic energy  EATOM  =     11152.61838693
  Solvation  Ediel_sol  =         0.00000000
  ---------------------------------------------------
  free energy    TOTEN  =       -37.72076661 eV

  energy without entropy =      -37.75127737  energy(sigma->0) =      -37.73093687


--------------------------------------------------------------------------------------------------------




--------------------------------------- Iteration      1(   5)  ---------------------------------------


     EDDAV:  cpu time      0.2200: real time      0.2219
       DOS:  cpu time      0.0007: real time      0.0007
    CHARGE:  cpu time      0.0535: real time      0.0537
    MIXING:  cpu time      0.0010: real time      0.0010
    --------------------------------------------
      LOOP:  cpu time      0.2752: real time      0.2774

 eigenvalue-minimisations  :   804
 total energy-change (2. order) :-0.9913631E-01  (-0.9908784E-01)
 number of electron      89.9999971 magnetization       9.3965911
 augmentation part       52.0564388 magnetization       9.0744646

 Broyden mixing:
  rms(total) = 0.27963E+01    rms(broyden)= 0.27961E+01
  rms(prec ) = 0.28595E+01
  weight for this iteration     100.00

 Free energy of the ion-electron system (eV)
  ---------------------------------------------------
  alpha Z        PSCENC =       285.34744303
  Ewald energy   TEWEN  =     52249.00400961
  -Hartree energ DENC   =    -63299.81833421
  -exchange      EXHF   =         0.00000000
  -V(xc)+E(xc)   XCENC  =       372.63362434
  PAW double counting   =      9828.36862813   -10674.97285505
  entropy T*S    EENTRO =         0.03046227
  eigenvalues    EBANDS =        48.96873203
  atomic energy  EATOM  =     11152.61838693
  Solvation  Ediel_sol  =         0.00000000
  ---------------------------------------------------
  free energy    TOTEN  =       -37.81990292 eV

  energy without entropy =      -37.85036519  energy(sigma->0) =      -37.83005701


--------------------------------------------------------------------------------------------------------




--------------------------------------- Iteration      1(   6)  ---------------------------------------


    POTLOK:  cpu time      0.0202: real time      0.0205
    SETDIJ:  cpu time      0.0063: real time      0.0064
     EDDAV:  cpu time      0.2660: real time      0.2682
       DOS:  cpu time      0.0009: real time      0.0009
    CHARGE:  cpu time      0.0544: real time      0.0547
    MIXING:  cpu time      0.0010: real time      0.0010
    --------------------------------------------
      LOOP:  cpu time      0.3489: real time      0.3517

 eigenvalue-minimisations  :   924
 total energy-change (2. order) : 0.4997453E+01  (-0.1042217E+02)
 number of electron      89.9999992 magnetization       9.0967955
 augmentation part       57.1456773 magnetization       7.0039150

 Broyden mixing:
  rms(total) = 0.17910E+01    rms(broyden)= 0.17906E+01
  rms(prec ) = 0.24669E+01
  weight for this iteration     100.00

 eigenvalues of (default mixing * dielectric matrix)
  average eigenvalue GAMMA=   0.7448
  0.7448

 Free energy of the ion-electron system (eV)
  ---------------------------------------------------
  alpha Z        PSCENC =       285.34744303
  Ewald energy   TEWEN  =     52249.00400961
  -Hartree energ DENC   =    -63089.30954724
  -exchange      EXHF   =         0.00000000
  -V(xc)+E(xc)   XCENC  =       365.47149139
  PAW double counting   =     10014.86240864   -10818.45981534
  entropy T*S    EENTRO =        -0.03995475
  eigenvalues    EBANDS =      -192.31687219
  atomic energy  EATOM  =     11152.61838693
  Solvation  Ediel_sol  =         0.00000000
  ---------------------------------------------------
  free energy    TOTEN  =       -32.82244992 eV

  energy without entropy =      -32.78249517  energy(sigma->0) =      -32.80913167


--------------------------------------------------------------------------------------------------------




--------------------------------------- Iteration      1(   7)  ---------------------------------------


    POTLOK:  cpu time      0.0204: real time      0.0207
    SETDIJ:  cpu time      0.0061: real time      0.0061
     EDDAV:  cpu time      0.2673: real time      0.2693
       DOS:  cpu time      0.0008: real time      0.0008
    CHARGE:  cpu time      0.0511: real time      0.0513
    MIXING:  cpu time      0.0009: real time      0.0009
    --------------------------------------------
      LOOP:  cpu time      0.3465: real time      0.3490

 eigenvalue-minimisations  :  1016
 total energy-change (2. order) :-0.4632040E+02  (-0.2375004E+02)
 number of electron      89.9999974 magnetization       8.9536689
 augmentation part       51.5954127 magnetization       6.1173284

 Broyden mixing:
  rms(total) = 0.53104E+01    rms(broyden)= 0.53101E+01
  rms(prec ) = 0.96971E+01
  weight for this iteration     100.00

 eigenvalues of (default mixing * dielectric matrix)
  average eigenvalue GAMMA=   0.4560
  0.8101  0.1018

 Free energy of the ion-electron system (eV)
  ---------------------------------------------------
  alpha Z        PSCENC =       285.34744303
  Ewald energy   TEWEN  =     52249.00400961
  -Hartree energ DENC   =    -63223.76723408
  -exchange      EXHF   =         0.00000000
  -V(xc)+E(xc)   XCENC  =       366.76075995
  PAW double counting   =     10161.35229133   -10988.27474687
  entropy T*S    EENTRO =         0.00086277
  eigenvalues    EBANDS =       -82.18461827
  atomic energy  EATOM  =     11152.61838693
  Solvation  Ediel_sol  =         0.00000000
  ---------------------------------------------------
  free energy    TOTEN  =       -79.14284561 eV

  energy without entropy =      -79.14370838  energy(sigma->0) =      -79.14313320


--------------------------------------------------------------------------------------------------------




--------------------------------------- Iteration      1(   8)  ---------------------------------------


    POTLOK:  cpu time      0.0192: real time      0.0195
    SETDIJ:  cpu time      0.0059: real time      0.0059
     EDDAV:  cpu time      0.3048: real time      0.3073
       DOS:  cpu time      0.0008: real time      0.0008
    CHARGE:  cpu time      0.0503: real time      0.0506
    MIXING:  cpu time      0.0009: real time      0.0009
    --------------------------------------------
      LOOP:  cpu time      0.3819: real time      0.3849

 eigenvalue-minimisations  :  1192
 total energy-change (2. order) : 0.4283768E+02  (-0.1762518E+02)
 number of electron      89.9999982 magnetization       8.7817434
 augmentation part       56.0163280 magnetization       6.6085770

 Broyden mixing:
  rms(total) = 0.19955E+01    rms(broyden)= 0.19949E+01
  rms(prec ) = 0.25069E+01
  weight for this iteration     100.00

 eigenvalues of (default mixing * dielectric matrix)
  average eigenvalue GAMMA=   0.4065
  0.8434  0.2925  0.0837

 Free energy of the ion-electron system (eV)
  ---------------------------------------------------
  alpha Z        PSCENC =       285.34744303
  Ewald energy   TEWEN  =     52249.00400961
  -Hartree energ DENC   =    -63198.35785137
  -exchange      EXHF   =         0.00000000
  -V(xc)+E(xc)   XCENC  =       366.60243563
  PAW double counting   =     10187.75022080   -11020.56070169
  entropy T*S    EENTRO =        -0.05614801
  eigenvalues    EBANDS =       -58.65295990
  atomic energy  EATOM  =     11152.61838693
  Solvation  Ediel_sol  =         0.00000000
  ---------------------------------------------------
  free energy    TOTEN  =       -36.30516497 eV

  energy without entropy =      -36.24901695  energy(sigma->0) =      -36.28644896


--------------------------------------------------------------------------------------------------------




--------------------------------------- Iteration      1(   9)  ---------------------------------------


    POTLOK:  cpu time      0.0192: real time      0.0195
    SETDIJ:  cpu time      0.0058: real time      0.0058
     EDDAV:  cpu time      0.2954: real time      0.2981
       DOS:  cpu time      0.0008: real time      0.0008
    CHARGE:  cpu time      0.0519: real time      0.0522
    MIXING:  cpu time      0.0010: real time      0.0010
    --------------------------------------------
      LOOP:  cpu time      0.3742: real time      0.3773

 eigenvalue-minimisations  :  1148
 total energy-change (2. order) : 0.5053724E+01  (-0.4183758E+01)
 number of electron      89.9999968 magnetization       8.6321319
 augmentation part       57.1975815 magnetization       7.2624387

 Broyden mixing:
  rms(total) = 0.13004E+01    rms(broyden)= 0.13002E+01
  rms(prec ) = 0.13779E+01
  weight for this iteration     100.00

 eigenvalues of (default mixing * dielectric matrix)
  average eigenvalue GAMMA=   0.3837
  0.8832  0.0880  0.2818  0.2818

 Free energy of the ion-electron system (eV)
  ---------------------------------------------------
  alpha Z        PSCENC =       285.34744303
  Ewald energy   TEWEN  =     52249.00400961
  -Hartree energ DENC   =    -63089.71456091
  -exchange      EXHF   =         0.00000000
  -V(xc)+E(xc)   XCENC  =       366.39855304
  PAW double counting   =     10236.20447060   -11076.14885436
  entropy T*S    EENTRO =        -0.00381507
  eigenvalues    EBANDS =      -154.95707363
  atomic energy  EATOM  =     11152.61838693
  Solvation  Ediel_sol  =         0.00000000
  ---------------------------------------------------
  free energy    TOTEN  =       -31.25144077 eV

  energy without entropy =      -31.24762570  energy(sigma->0) =      -31.25016908


--------------------------------------------------------------------------------------------------------




--------------------------------------- Iteration      1(  10)  ---------------------------------------


    POTLOK:  cpu time      0.0190: real time      0.0193
    SETDIJ:  cpu time      0.0059: real time      0.0060
     EDDAV:  cpu time      0.2624: real time      0.2644
       DOS:  cpu time      0.0008: real time      0.0008
    CHARGE:  cpu time      0.0498: real time      0.0502
    MIXING:  cpu time      0.0012: real time      0.0012
    --------------------------------------------
      LOOP:  cpu time      0.3391: real time      0.3418

 eigenvalue-minimisations  :  1000
 total energy-change (2. order) : 0.1474423E+01  (-0.3983862E+00)
 number of electron      89.9999973 magnetization       8.3954676
 augmentation part       56.9677325 magnetization       6.9323252

 Broyden mixing:
  rms(total) = 0.98589E+00    rms(broyden)= 0.98587E+00
  rms(prec ) = 0.10323E+01
  weight for this iteration     100.00

 eigenvalues of (default mixing * dielectric matrix)
  average eigenvalue GAMMA=   0.4431
  0.9075  0.4758  0.4758  0.0865  0.2699

 Free energy of the ion-electron system (eV)
  ---------------------------------------------------
  alpha Z        PSCENC =       285.34744303
  Ewald energy   TEWEN  =     52249.00400961
  -Hartree energ DENC   =    -63122.36894856
  -exchange      EXHF   =         0.00000000
  -V(xc)+E(xc)   XCENC  =       366.98238515
  PAW double counting   =     10288.98864212   -11135.25647068
  entropy T*S    EENTRO =        -0.00892074
  eigenvalues    EBANDS =      -115.08354511
  atomic energy  EATOM  =     11152.61838693
  Solvation  Ediel_sol  =         0.00000000
  ---------------------------------------------------
  free energy    TOTEN  =       -29.77701825 eV

  energy without entropy =      -29.76809751  energy(sigma->0) =      -29.77404467


--------------------------------------------------------------------------------------------------------




--------------------------------------- Iteration      1(  11)  ---------------------------------------


    POTLOK:  cpu time      0.0194: real time      0.0210
    SETDIJ:  cpu time      0.0058: real time      0.0058
     EDDAV:  cpu time      0.2479: real time      0.2499
       DOS:  cpu time      0.0007: real time      0.0007
    CHARGE:  cpu time      0.0485: real time      0.0487
    MIXING:  cpu time      0.0010: real time      0.0010
    --------------------------------------------
      LOOP:  cpu time      0.3233: real time      0.3271

 eigenvalue-minimisations  :   936
 total energy-change (2. order) : 0.4217287E+00  (-0.1597030E+00)
 number of electron      89.9999975 magnetization       7.5594748
 augmentation part       56.5809993 magnetization       5.9781843

 Broyden mixing:
  rms(total) = 0.84158E+00    rms(broyden)= 0.84156E+00
  rms(prec ) = 0.90920E+00
  weight for this iteration     100.00

 eigenvalues of (default mixing * dielectric matrix)
  average eigenvalue GAMMA=   0.5501
  1.0996  0.7272  0.7272  0.0866  0.2768  0.3829

 Free energy of the ion-electron system (eV)
  ---------------------------------------------------
  alpha Z        PSCENC =       285.34744303
  Ewald energy   TEWEN  =     52249.00400961
  -Hartree energ DENC   =    -63145.29134387
  -exchange      EXHF   =         0.00000000
  -V(xc)+E(xc)   XCENC  =       367.58776073
  PAW double counting   =     10349.26549720   -11201.04923557
  entropy T*S    EENTRO =        -0.01436814
  eigenvalues    EBANDS =       -86.82343949
  atomic energy  EATOM  =     11152.61838693
  Solvation  Ediel_sol  =         0.00000000
  ---------------------------------------------------
  free energy    TOTEN  =       -29.35528958 eV

  energy without entropy =      -29.34092144  energy(sigma->0) =      -29.35050020


--------------------------------------------------------------------------------------------------------




--------------------------------------- Iteration      1(  12)  ---------------------------------------


    POTLOK:  cpu time      0.0190: real time      0.0192
    SETDIJ:  cpu time      0.0058: real time      0.0058
     EDDAV:  cpu time      0.2485: real time      0.2508
       DOS:  cpu time      0.0007: real time      0.0007
    CHARGE:  cpu time      0.0527: real time      0.0529
    MIXING:  cpu time      0.0029: real time      0.0029
    --------------------------------------------
      LOOP:  cpu time      0.3296: real time      0.3324

 eigenvalue-minimisations  :   940
 total energy-change (2. order) : 0.4563250E+00  (-0.2439925E+00)
 number of electron      89.9999978 magnetization       6.7478014
 augmentation part       56.0142809 magnetization       5.0626074

 Broyden mixing:
  rms(total) = 0.66745E+00    rms(broyden)= 0.66742E+00
  rms(prec ) = 0.71211E+00
  weight for this iteration     100.00

 eigenvalues of (default mixing * dielectric matrix)
  average eigenvalue GAMMA=   0.5808
  1.3756  0.6248  0.6248  0.6423  0.0866  0.4457  0.2654

 Free energy of the ion-electron system (eV)
  ---------------------------------------------------
  alpha Z        PSCENC =       285.34744303
  Ewald energy   TEWEN  =     52249.00400961
  -Hartree energ DENC   =    -63190.69947348
  -exchange      EXHF   =         0.00000000
  -V(xc)+E(xc)   XCENC  =       368.50871210
  PAW double counting   =     10515.88975938   -11379.86570458
  entropy T*S    EENTRO =        -0.01685596
  eigenvalues    EBANDS =       -29.68524162
  atomic energy  EATOM  =     11152.61838693
  Solvation  Ediel_sol  =         0.00000000
  ---------------------------------------------------
  free energy    TOTEN  =       -28.89896459 eV

  energy without entropy =      -28.88210864  energy(sigma->0) =      -28.89334594


--------------------------------------------------------------------------------------------------------




--------------------------------------- Iteration      1(  13)  ---------------------------------------


    POTLOK:  cpu time      0.0203: real time      0.0206
    SETDIJ:  cpu time      0.0061: real time      0.0062
     EDDAV:  cpu time      0.2699: real time      0.2720
       DOS:  cpu time      0.0007: real time      0.0007
    CHARGE:  cpu time      0.0511: real time      0.0513
    MIXING:  cpu time      0.0014: real time      0.0014
    --------------------------------------------
      LOOP:  cpu time      0.3495: real time      0.3520

 eigenvalue-minimisations  :  1024
 total energy-change (2. order) :-0.7399723E+00  (-0.1254437E+00)
 number of electron      89.9999978 magnetization       5.2923752
 augmentation part       56.1278026 magnetization       3.7773722

 Broyden mixing:
  rms(total) = 0.55062E+00    rms(broyden)= 0.55061E+00
  rms(prec ) = 0.58102E+00
  weight for this iteration     100.00

 eigenvalues of (default mixing * dielectric matrix)
  average eigenvalue GAMMA=   0.7347
  1.9757  1.0825  0.7820  0.7820  0.0866  0.2679  0.4971  0.4033

 Free energy of the ion-electron system (eV)
  ---------------------------------------------------
  alpha Z        PSCENC =       285.34744303
  Ewald energy   TEWEN  =     52249.00400961
  -Hartree energ DENC   =    -63186.06438949
  -exchange      EXHF   =         0.00000000
  -V(xc)+E(xc)   XCENC  =       367.56876153
  PAW double counting   =     10610.39527451   -11476.92213519
  entropy T*S    EENTRO =        -0.01353415
  eigenvalues    EBANDS =       -31.57275362
  atomic energy  EATOM  =     11152.61838693
  Solvation  Ediel_sol  =         0.00000000
  ---------------------------------------------------
  free energy    TOTEN  =       -29.63893685 eV

  energy without entropy =      -29.62540270  energy(sigma->0) =      -29.63442546


--------------------------------------------------------------------------------------------------------




--------------------------------------- Iteration      1(  14)  ---------------------------------------


    POTLOK:  cpu time      0.0200: real time      0.0202
    SETDIJ:  cpu time      0.0058: real time      0.0059
     EDDAV:  cpu time      0.2774: real time      0.2796
       DOS:  cpu time      0.0007: real time      0.0007
    CHARGE:  cpu time      0.0523: real time      0.0525
    MIXING:  cpu time      0.0012: real time      0.0012
    --------------------------------------------
      LOOP:  cpu time      0.3574: real time      0.3601

 eigenvalue-minimisations  :  1068
 total energy-change (2. order) :-0.2059018E+01  (-0.2019944E+00)
 number of electron      89.9999975 magnetization       4.0480689
 augmentation part       56.4444112 magnetization       2.8063316

 Broyden mixing:
  rms(total) = 0.46129E+00    rms(broyden)= 0.46125E+00
  rms(prec ) = 0.46889E+00
  weight for this iteration     100.00

 eigenvalues of (default mixing * dielectric matrix)
  average eigenvalue GAMMA=   0.9159
  3.3330  1.3965  0.7872  0.7872  0.0866  0.5938  0.5938  0.3977  0.2675

 Free energy of the ion-electron system (eV)
  ---------------------------------------------------
  alpha Z        PSCENC =       285.34744303
  Ewald energy   TEWEN  =     52249.00400961
  -Hartree energ DENC   =    -63184.83092766
  -exchange      EXHF   =         0.00000000
  -V(xc)+E(xc)   XCENC  =       365.70577868
  PAW double counting   =     10690.02279565   -11555.91413545
  entropy T*S    EENTRO =        -0.01233259
  eigenvalues    EBANDS =       -33.63897280
  atomic energy  EATOM  =     11152.61838693
  Solvation  Ediel_sol  =         0.00000000
  ---------------------------------------------------
  free energy    TOTEN  =       -31.69795460 eV

  energy without entropy =      -31.68562201  energy(sigma->0) =      -31.69384374


--------------------------------------------------------------------------------------------------------




--------------------------------------- Iteration      1(  15)  ---------------------------------------


    POTLOK:  cpu time      0.0190: real time      0.0195
    SETDIJ:  cpu time      0.0058: real time      0.0058
     EDDAV:  cpu time      0.2842: real time      0.2863
       DOS:  cpu time      0.0007: real time      0.0007
    CHARGE:  cpu time      0.0503: real time      0.0506
    MIXING:  cpu time      0.0013: real time      0.0014
    --------------------------------------------
      LOOP:  cpu time      0.3614: real time      0.3643

 eigenvalue-minimisations  :  1104
 total energy-change (2. order) :-0.1805580E+01  (-0.1499959E+00)
 number of electron      89.9999974 magnetization       2.8275287
 augmentation part       56.3905965 magnetization       1.7774728

 Broyden mixing:
  rms(total) = 0.37713E+00    rms(broyden)= 0.37712E+00
  rms(prec ) = 0.39150E+00
  weight for this iteration     100.00

 eigenvalues of (default mixing * dielectric matrix)
  average eigenvalue GAMMA=   1.1286
  5.2701  1.7546  0.8267  0.8267  0.0866  0.6657  0.6657  0.5186  0.2674  0.4038

 Free energy of the ion-electron system (eV)
  ---------------------------------------------------
  alpha Z        PSCENC =       285.34744303
  Ewald energy   TEWEN  =     52249.00400961
  -Hartree energ DENC   =    -63203.21803347
  -exchange      EXHF   =         0.00000000
  -V(xc)+E(xc)   XCENC  =       364.94429891
  PAW double counting   =     10699.22867848   -11564.09171134
  entropy T*S    EENTRO =        -0.01466978
  eigenvalues    EBANDS =       -17.32193667
  atomic energy  EATOM  =     11152.61838693
  Solvation  Ediel_sol  =         0.00000000
  ---------------------------------------------------
  free energy    TOTEN  =       -33.50353431 eV

  energy without entropy =      -33.48886453  energy(sigma->0) =      -33.49864439


--------------------------------------------------------------------------------------------------------




--------------------------------------- Iteration      1(  16)  ---------------------------------------


    POTLOK:  cpu time      0.0190: real time      0.0199
    SETDIJ:  cpu time      0.0057: real time      0.0058
     EDDAV:  cpu time      0.2525: real time      0.2547
       DOS:  cpu time      0.0008: real time      0.0008
    CHARGE:  cpu time      0.0504: real time      0.0506
    MIXING:  cpu time      0.0014: real time      0.0014
    --------------------------------------------
      LOOP:  cpu time      0.3299: real time      0.3332

 eigenvalue-minimisations  :   956
 total energy-change (2. order) :-0.1148527E+01  (-0.1349969E+00)
 number of electron      89.9999975 magnetization       1.7013689
 augmentation part       56.2225343 magnetization       0.9461176

 Broyden mixing:
  rms(total) = 0.23537E+00    rms(broyden)= 0.23535E+00
  rms(prec ) = 0.27892E+00
  weight for this iteration     100.00

 eigenvalues of (default mixing * dielectric matrix)
  average eigenvalue GAMMA=   1.4254
  8.4920  2.0005  0.9889  0.8347  0.8347  0.0866  0.2674  0.7202  0.3999  0.5275
  0.5275

 Free energy of the ion-electron system (eV)
  ---------------------------------------------------
  alpha Z        PSCENC =       285.34744303
  Ewald energy   TEWEN  =     52249.00400961
  -Hartree energ DENC   =    -63218.13970911
  -exchange      EXHF   =         0.00000000
  -V(xc)+E(xc)   XCENC  =       364.75808141
  PAW double counting   =     10652.90194473   -11516.16098274
  entropy T*S    EENTRO =        -0.01870696
  eigenvalues    EBANDS =        -4.96252831
  atomic energy  EATOM  =     11152.61838693
  Solvation  Ediel_sol  =         0.00000000
  ---------------------------------------------------
  free energy    TOTEN  =       -34.65206142 eV

  energy without entropy =      -34.63335446  energy(sigma->0) =      -34.64582576


--------------------------------------------------------------------------------------------------------




--------------------------------------- Iteration      1(  17)  ---------------------------------------


    POTLOK:  cpu time      0.0189: real time      0.0192
    SETDIJ:  cpu time      0.0059: real time      0.0060
     EDDAV:  cpu time      0.2620: real time      0.2640
       DOS:  cpu time      0.0008: real time      0.0008
    CHARGE:  cpu time      0.0496: real time      0.0501
    MIXING:  cpu time      0.0016: real time      0.0016
    --------------------------------------------
      LOOP:  cpu time      0.3389: real time      0.3417

 eigenvalue-minimisations  :  1004
 total energy-change (2. order) :-0.6846191E+00  (-0.6651656E-01)
 number of electron      89.9999976 magnetization       1.2895412
 augmentation part       56.1568957 magnetization       0.7396596

 Broyden mixing:
  rms(total) = 0.14088E+00    rms(broyden)= 0.14086E+00
  rms(prec ) = 0.16542E+00
  weight for this iteration     100.00

 eigenvalues of (default mixing * dielectric matrix)
  average eigenvalue GAMMA=   1.6163
 11.0761  2.0845  1.3392  0.8321  0.8321  0.0866  0.7928  0.2674  0.6414  0.4009
  0.5577  0.4850

 Free energy of the ion-electron system (eV)
  ---------------------------------------------------
  alpha Z        PSCENC =       285.34744303
  Ewald energy   TEWEN  =     52249.00400961
  -Hartree energ DENC   =    -63227.23848803
  -exchange      EXHF   =         0.00000000
  -V(xc)+E(xc)   XCENC  =       364.38861630
  PAW double counting   =     10615.83132809   -11477.86951292
  entropy T*S    EENTRO =        -0.01205916
  eigenvalues    EBANDS =         2.59359564
  atomic energy  EATOM  =     11152.61838693
  Solvation  Ediel_sol  =         0.00000000
  ---------------------------------------------------
  free energy    TOTEN  =       -35.33668052 eV

  energy without entropy =      -35.32462136  energy(sigma->0) =      -35.33266080


--------------------------------------------------------------------------------------------------------




--------------------------------------- Iteration      1(  18)  ---------------------------------------


    POTLOK:  cpu time      0.0189: real time      0.0192
    SETDIJ:  cpu time      0.0058: real time      0.0058
     EDDAV:  cpu time      0.2538: real time      0.2557
       DOS:  cpu time      0.0022: real time      0.0022
    CHARGE:  cpu time      0.0483: real time      0.0486
    MIXING:  cpu time      0.0014: real time      0.0015
    --------------------------------------------
      LOOP:  cpu time      0.3305: real time      0.3329

 eigenvalue-minimisations  :   964
 total energy-change (2. order) :-0.3846467E+00  (-0.2820231E-01)
 number of electron      89.9999976 magnetization       1.1448009
 augmentation part       56.1355713 magnetization       0.6682799

 Broyden mixing:
  rms(total) = 0.10607E+00    rms(broyden)= 0.10606E+00
  rms(prec ) = 0.11635E+00
  weight for this iteration     100.00

 eigenvalues of (default mixing * dielectric matrix)
  average eigenvalue GAMMA=   1.6236
 11.7053  2.3231  1.0715  1.0715  0.8413  0.8413  0.0866  0.7479  0.7479  0.2674
  0.3997  0.5017  0.5017

 Free energy of the ion-electron system (eV)
  ---------------------------------------------------
  alpha Z        PSCENC =       285.34744303
  Ewald energy   TEWEN  =     52249.00400961
  -Hartree energ DENC   =    -63229.42015435
  -exchange      EXHF   =         0.00000000
  -V(xc)+E(xc)   XCENC  =       364.11921271
  PAW double counting   =     10609.56611461   -11471.81613602
  entropy T*S    EENTRO =        -0.01157091
  eigenvalues    EBANDS =         4.87136719
  atomic energy  EATOM  =     11152.61838693
  Solvation  Ediel_sol  =         0.00000000
  ---------------------------------------------------
  free energy    TOTEN  =       -35.72132722 eV

  energy without entropy =      -35.70975631  energy(sigma->0) =      -35.71747025


--------------------------------------------------------------------------------------------------------




--------------------------------------- Iteration      1(  19)  ---------------------------------------


    POTLOK:  cpu time      0.0189: real time      0.0192
    SETDIJ:  cpu time      0.0058: real time      0.0058
     EDDAV:  cpu time      0.2621: real time      0.2642
       DOS:  cpu time      0.0008: real time      0.0008
    CHARGE:  cpu time      0.0499: real time      0.0502
    MIXING:  cpu time      0.0017: real time      0.0017
    --------------------------------------------
      LOOP:  cpu time      0.3392: real time      0.3418

 eigenvalue-minimisations  :  1000
 total energy-change (2. order) :-0.2340323E+00  (-0.1233889E-01)
 number of electron      89.9999977 magnetization       0.8548182
 augmentation part       56.1593676 magnetization       0.4502923

 Broyden mixing:
  rms(total) = 0.83233E-01    rms(broyden)= 0.83223E-01
  rms(prec ) = 0.90929E-01
  weight for this iteration     100.00

 eigenvalues of (default mixing * dielectric matrix)
  average eigenvalue GAMMA=   1.7346
 12.7311  2.7281  1.9195  1.2808  0.8389  0.8389  0.0866  0.7925  0.7925  0.2674
  0.4003  0.5591  0.5591  0.4903

 Free energy of the ion-electron system (eV)
  ---------------------------------------------------
  alpha Z        PSCENC =       285.34744303
  Ewald energy   TEWEN  =     52249.00400961
  -Hartree energ DENC   =    -63222.08012026
  -exchange      EXHF   =         0.00000000
  -V(xc)+E(xc)   XCENC  =       363.90500456
  PAW double counting   =     10592.94870759   -11454.66807036
  entropy T*S    EENTRO =        -0.01114768
  eigenvalues    EBANDS =        -3.01957295
  atomic energy  EATOM  =     11152.61838693
  Solvation  Ediel_sol  =         0.00000000
  ---------------------------------------------------
  free energy    TOTEN  =       -35.95535954 eV

  energy without entropy =      -35.94421186  energy(sigma->0) =      -35.95164364


--------------------------------------------------------------------------------------------------------




--------------------------------------- Iteration      1(  20)  ---------------------------------------


    POTLOK:  cpu time      0.0189: real time      0.0192
    SETDIJ:  cpu time      0.0058: real time      0.0058
     EDDAV:  cpu time      0.2645: real time      0.2665
       DOS:  cpu time      0.0007: real time      0.0007
    CHARGE:  cpu time      0.0497: real time      0.0503
    MIXING:  cpu time      0.0018: real time      0.0018
    --------------------------------------------
      LOOP:  cpu time      0.3414: real time      0.3443

 eigenvalue-minimisations  :  1012
 total energy-change (2. order) :-0.2470024E+00  (-0.1773959E-01)
 number of electron      89.9999977 magnetization       0.6999195
 augmentation part       56.1550635 magnetization       0.3878664

 Broyden mixing:
  rms(total) = 0.62421E-01    rms(broyden)= 0.62395E-01
  rms(prec ) = 0.64503E-01
  weight for this iteration     100.00

 eigenvalues of (default mixing * dielectric matrix)
  average eigenvalue GAMMA=   1.7468
 13.2163  2.9948  2.2899  1.1345  1.1345  0.8356  0.8356  0.0866  0.2674  0.7198
  0.7198  0.4003  0.5408  0.5408  0.4856

 Free energy of the ion-electron system (eV)
  ---------------------------------------------------
  alpha Z        PSCENC =       285.34744303
  Ewald energy   TEWEN  =     52249.00400961
  -Hartree energ DENC   =    -63215.66945137
  -exchange      EXHF   =         0.00000000
  -V(xc)+E(xc)   XCENC  =       363.71362746
  PAW double counting   =     10584.05168139   -11445.93966626
  entropy T*S    EENTRO =        -0.01687223
  eigenvalues    EBANDS =        -9.31152046
  atomic energy  EATOM  =     11152.61838693
  Solvation  Ediel_sol  =         0.00000000
  ---------------------------------------------------
  free energy    TOTEN  =       -36.20236191 eV

  energy without entropy =      -36.18548968  energy(sigma->0) =      -36.19673783


--------------------------------------------------------------------------------------------------------




--------------------------------------- Iteration      1(  21)  ---------------------------------------


    POTLOK:  cpu time      0.0190: real time      0.0192
    SETDIJ:  cpu time      0.0057: real time      0.0058
     EDDAV:  cpu time      0.2720: real time      0.2741
       DOS:  cpu time      0.0008: real time      0.0008
    CHARGE:  cpu time      0.0514: real time      0.0516
    MIXING:  cpu time      0.0022: real time      0.0022
    --------------------------------------------
      LOOP:  cpu time      0.3511: real time      0.3536

 eigenvalue-minimisations  :   992
 total energy-change (2. order) :-0.7043799E-01  (-0.4930762E-02)
 number of electron      89.9999976 magnetization       0.5414502
 augmentation part       56.1443241 magnetization       0.2698434

 Broyden mixing:
  rms(total) = 0.51856E-01    rms(broyden)= 0.51846E-01
  rms(prec ) = 0.52490E-01
  weight for this iteration     100.00

 eigenvalues of (default mixing * dielectric matrix)
  average eigenvalue GAMMA=   1.7942
 13.7492  3.7215  2.2308  1.4555  1.4555  0.8385  0.8385  0.0866  0.7617  0.7617
  0.2674  0.4003  0.5604  0.5604  0.4867  0.5327

 Free energy of the ion-electron system (eV)
  ---------------------------------------------------
  alpha Z        PSCENC =       285.34744303
  Ewald energy   TEWEN  =     52249.00400961
  -Hartree energ DENC   =    -63211.81121457
  -exchange      EXHF   =         0.00000000
  -V(xc)+E(xc)   XCENC  =       363.68108209
  PAW double counting   =     10588.71839076   -11451.08298397
  entropy T*S    EENTRO =        -0.01998597
  eigenvalues    EBANDS =       -12.72792780
  atomic energy  EATOM  =     11152.61838693
  Solvation  Ediel_sol  =         0.00000000
  ---------------------------------------------------
  free energy    TOTEN  =       -36.27279989 eV

  energy without entropy =      -36.25281392  energy(sigma->0) =      -36.26613790


--------------------------------------------------------------------------------------------------------




--------------------------------------- Iteration      1(  22)  ---------------------------------------


    POTLOK:  cpu time      0.0203: real time      0.0205
    SETDIJ:  cpu time      0.0061: real time      0.0061
     EDDAV:  cpu time      0.2305: real time      0.2325
       DOS:  cpu time      0.0008: real time      0.0008
    CHARGE:  cpu time      0.0496: real time      0.0498
    MIXING:  cpu time      0.0019: real time      0.0019
    --------------------------------------------
      LOOP:  cpu time      0.3092: real time      0.3116

 eigenvalue-minimisations  :   852
 total energy-change (2. order) :-0.5327024E-01  (-0.3614973E-02)
 number of electron      89.9999976 magnetization       0.4108461
 augmentation part       56.1482640 magnetization       0.1773789

 Broyden mixing:
  rms(total) = 0.42555E-01    rms(broyden)= 0.42544E-01
  rms(prec ) = 0.44041E-01
  weight for this iteration     100.00

 eigenvalues of (default mixing * dielectric matrix)
  average eigenvalue GAMMA=   1.8007
 14.1451  4.5136  2.0584  1.7667  1.1582  0.8384  0.8384  0.0866  0.8615  0.8615
  0.2674  0.7168  0.4003  0.5935  0.5146  0.5146  0.4765

 Free energy of the ion-electron system (eV)
  ---------------------------------------------------
  alpha Z        PSCENC =       285.34744303
  Ewald energy   TEWEN  =     52249.00400961
  -Hartree energ DENC   =    -63209.54912792
  -exchange      EXHF   =         0.00000000
  -V(xc)+E(xc)   XCENC  =       363.62216375
  PAW double counting   =     10590.89814521   -11453.30961577
  entropy T*S    EENTRO =        -0.02178809
  eigenvalues    EBANDS =       -14.93568689
  atomic energy  EATOM  =     11152.61838693
  Solvation  Ediel_sol  =         0.00000000
  ---------------------------------------------------
  free energy    TOTEN  =       -36.32607013 eV

  energy without entropy =      -36.30428205  energy(sigma->0) =      -36.31880744


--------------------------------------------------------------------------------------------------------




--------------------------------------- Iteration      1(  23)  ---------------------------------------


    POTLOK:  cpu time      0.0190: real time      0.0192
    SETDIJ:  cpu time      0.0059: real time      0.0060
     EDDAV:  cpu time      0.2371: real time      0.2388
       DOS:  cpu time      0.0007: real time      0.0007
    CHARGE:  cpu time      0.0489: real time      0.0493
    MIXING:  cpu time      0.0022: real time      0.0022
    --------------------------------------------
      LOOP:  cpu time      0.3137: real time      0.3163

 eigenvalue-minimisations  :   888
 total energy-change (2. order) :-0.1347111E+00  (-0.2310762E-02)
 number of electron      89.9999977 magnetization       0.2550523
 augmentation part       56.1708809 magnetization       0.0676427

 Broyden mixing:
  rms(total) = 0.37536E-01    rms(broyden)= 0.37526E-01
  rms(prec ) = 0.42480E-01
  weight for this iteration     100.00

 eigenvalues of (default mixing * dielectric matrix)
  average eigenvalue GAMMA=   1.9687
 15.1208  6.1402  2.9052  1.8488  1.4509  1.2122  0.8387  0.8387  0.0866  0.7969
  0.7969  0.2674  0.6523  0.4003  0.5560  0.5449  0.5072  0.4716

 Free energy of the ion-electron system (eV)
  ---------------------------------------------------
  alpha Z        PSCENC =       285.34744303
  Ewald energy   TEWEN  =     52249.00400961
  -Hartree energ DENC   =    -63206.07160069
  -exchange      EXHF   =         0.00000000
  -V(xc)+E(xc)   XCENC  =       363.46803312
  PAW double counting   =     10590.13414943   -11452.31802539
  entropy T*S    EENTRO =        -0.02249626
  eigenvalues    EBANDS =       -18.62068104
  atomic energy  EATOM  =     11152.61838693
  Solvation  Ediel_sol  =         0.00000000
  ---------------------------------------------------
  free energy    TOTEN  =       -36.46078127 eV

  energy without entropy =      -36.43828501  energy(sigma->0) =      -36.45328252


--------------------------------------------------------------------------------------------------------




--------------------------------------- Iteration      1(  24)  ---------------------------------------


    POTLOK:  cpu time      0.0189: real time      0.0191
    SETDIJ:  cpu time      0.0058: real time      0.0058
     EDDAV:  cpu time      0.2344: real time      0.2361
       DOS:  cpu time      0.0008: real time      0.0008
    CHARGE:  cpu time      0.0485: real time      0.0487
    MIXING:  cpu time      0.0021: real time      0.0021
    --------------------------------------------
      LOOP:  cpu time      0.3104: real time      0.3127

 eigenvalue-minimisations  :   876
 total energy-change (2. order) :-0.3354971E+00  (-0.1907069E-02)
 number of electron      89.9999976 magnetization       0.2043631
 augmentation part       56.1662712 magnetization       0.0471060

 Broyden mixing:
  rms(total) = 0.25708E-01    rms(broyden)= 0.25695E-01
  rms(prec ) = 0.30832E-01
  weight for this iteration     100.00

 eigenvalues of (default mixing * dielectric matrix)
  average eigenvalue GAMMA=   2.0333
 15.7630  7.3587  3.1944  2.0404  1.3493  1.1269  1.1269  0.8382  0.8382  0.0866
  0.2674  0.7576  0.7576  0.6759  0.4003  0.5409  0.5409  0.4982  0.4708

 Free energy of the ion-electron system (eV)
  ---------------------------------------------------
  alpha Z        PSCENC =       285.34744303
  Ewald energy   TEWEN  =     52249.00400961
  -Hartree energ DENC   =    -63204.69103772
  -exchange      EXHF   =         0.00000000
  -V(xc)+E(xc)   XCENC  =       363.14936109
  PAW double counting   =     10598.28844194   -11460.76298599
  entropy T*S    EENTRO =        -0.02332222
  eigenvalues    EBANDS =       -19.72657508
  atomic energy  EATOM  =     11152.61838693
  Solvation  Ediel_sol  =         0.00000000
  ---------------------------------------------------
  free energy    TOTEN  =       -36.79627841 eV

  energy without entropy =      -36.77295619  energy(sigma->0) =      -36.78850434


--------------------------------------------------------------------------------------------------------




--------------------------------------- Iteration      1(  25)  ---------------------------------------


    POTLOK:  cpu time      0.0189: real time      0.0191
    SETDIJ:  cpu time      0.0058: real time      0.0058
     EDDAV:  cpu time      0.2611: real time      0.2632
       DOS:  cpu time      0.0007: real time      0.0007
    CHARGE:  cpu time      0.0484: real time      0.0487
    MIXING:  cpu time      0.0023: real time      0.0023
    --------------------------------------------
      LOOP:  cpu time      0.3372: real time      0.3399

 eigenvalue-minimisations  :  1000
 total energy-change (2. order) :-0.7631224E-01  (-0.1213607E-02)
 number of electron      89.9999977 magnetization       0.1603176
 augmentation part       56.1600486 magnetization       0.0337331

 Broyden mixing:
  rms(total) = 0.20485E-01    rms(broyden)= 0.20479E-01
  rms(prec ) = 0.24843E-01
  weight for this iteration     100.00

 eigenvalues of (default mixing * dielectric matrix)
  average eigenvalue GAMMA=   2.0783
 16.4535  8.3122  3.4445  2.1194  1.4253  1.2675  1.2675  0.0866  0.8377  0.8377
  0.2674  0.7582  0.7582  0.7421  0.4003  0.5671  0.5671  0.5028  0.5028  0.4486

 Free energy of the ion-electron system (eV)
  ---------------------------------------------------
  alpha Z        PSCENC =       285.34744303
  Ewald energy   TEWEN  =     52249.00400961
  -Hartree energ DENC   =    -63202.19096924
  -exchange      EXHF   =         0.00000000
  -V(xc)+E(xc)   XCENC  =       363.10835202
  PAW double counting   =     10598.14148330   -11460.73105013
  entropy T*S    EENTRO =        -0.02319554
  eigenvalues    EBANDS =       -22.14705061
  atomic energy  EATOM  =     11152.61838693
  Solvation  Ediel_sol  =         0.00000000
  ---------------------------------------------------
  free energy    TOTEN  =       -36.87259065 eV

  energy without entropy =      -36.84939511  energy(sigma->0) =      -36.86485880


--------------------------------------------------------------------------------------------------------




--------------------------------------- Iteration      1(  26)  ---------------------------------------


    POTLOK:  cpu time      0.0188: real time      0.0191
    SETDIJ:  cpu time      0.0058: real time      0.0058
     EDDAV:  cpu time      0.2551: real time      0.2571
       DOS:  cpu time      0.0008: real time      0.0008
[...]
      4      -2.9649      1.00000
      5      -2.5250      1.00000
      6      -2.1400      1.00000
      7      -1.8104      1.00000
      8      -1.6299      1.00000
      9      -1.5561      1.00000
     10      -1.4559      1.00000
     11      -1.3974      1.00000
     12      -1.1782      1.00000
     13      -0.9892      1.00000
     14      -0.8422      1.00000
     15      -0.6659      1.00000
     16      -0.6414      1.00000
     17      -0.5115      1.00000
     18      -0.4493      1.00000
     19      -0.3884      1.00000
     20      -0.2952      1.00000
     21      -0.2945      1.00000
     22      -0.2027      1.00000
     23      -0.0840      1.00000
     24      -0.0655      1.00000
     25       0.0917      1.00000
     26       0.1922      1.00000
     27       0.3068      1.00000
     28       0.3967      1.00000
     29       0.4603      1.00000
     30       0.5574      1.00000
     31       0.5720      1.00000
     32       0.6418      1.00000
     33       0.6643      1.00000
     34       0.7171      1.00000
     35       0.7461      1.00000
     36       0.7946      1.00000
     37       0.8215      1.00000
     38       0.8335      1.00000
     39       0.9394      1.00000
     40       0.9544      1.00000
     41       1.0745      1.00000
     42       1.2097      1.00000
     43       1.2122      1.00000
     44       1.2199      1.00000
     45       1.3869      1.00000
     46       2.0224      0.79015
     47       3.1382     -0.00000
     48       4.4882     -0.00000
     49       5.9671     -0.00000
     50       7.1539     -0.00000
     51       8.3787      0.00000
     52       9.0917      0.00000
     53       9.4944      0.00000
     54       9.9031      0.00000
     55      10.1293      0.00000
     56      10.8157      0.00000
     57      10.9502      0.00000
     58      11.5550      0.00000
     59      11.8731      0.00000
     60      12.0980      0.00000

 k-point     3 :      -0.3333    0.3333    0.0000
  band No.  band energies     occupation 
      1      -2.8620      1.00000
      2      -1.5487      1.00000
      3      -1.5413      1.00000
      4      -1.5409      1.00000
      5      -1.4700      1.00000
      6      -1.4290      1.00000
      7      -1.4113      1.00000
      8      -1.3924      1.00000
      9      -1.3792      1.00000
     10      -1.3659      1.00000
     11      -1.3596      1.00000
     12      -1.3321      1.00000
     13      -1.2392      1.00000
     14      -1.1377      1.00000
     15      -1.0571      1.00000
     16      -1.0171      1.00000
     17      -0.7120      1.00000
     18      -0.6634      1.00000
     19      -0.6633      1.00000
     20      -0.5944      1.00000
     21      -0.4429      1.00000
     22      -0.3408      1.00000
     23       0.0306      1.00000
     24       0.0346      1.00000
     25       0.2476      1.00000
     26       0.2626      1.00000
     27       0.3360      1.00000
     28       0.3365      1.00000
     29       0.3661      1.00000
     30       0.3770      1.00000
     31       0.3894      1.00000
     32       0.6400      1.00000
     33       0.7430      1.00000
     34       0.8608      1.00000
     35       0.8646      1.00000
     36       0.8883      1.00000
     37       0.9658      1.00000
     38       1.0093      1.00000
     39       1.0399      1.00000
     40       1.0866      1.00000
     41       1.1599      1.00000
     42       5.7757     -0.00000
     43       5.7806     -0.00000
     44       5.7998     -0.00000
     45       5.9534     -0.00000
     46       5.9733     -0.00000
     47       6.2107     -0.00000
     48       6.3589     -0.00000
     49       6.8930     -0.00000
     50       7.1118     -0.00000
     51       7.6898      0.00000
     52       7.6986      0.00000
     53       7.8276      0.00000
     54       8.2396      0.00000
     55       8.2599      0.00000
     56       8.7942      0.00000
     57       9.2414      0.00000
     58       9.2785      0.00000
     59      10.5031      0.00000
     60      10.9493      0.00000


--------------------------------------------------------------------------------------------------------


 soft charge-density along one line, spin component           1
         0         1         2         3         4         5         6         7         8         9
 total charge-density along one line
 
 soft charge-density along one line, spin component           2
         0         1         2         3         4         5         6         7         8         9
 total charge-density along one line
 
 pseudopotential strength for first ion, spin component:           1
 -6.003  -0.000   0.000  -0.004   0.000  -2.378   0.000  -0.000
 -0.000  -6.055   0.000   0.000  -0.004   0.000  -2.342  -0.000
  0.000   0.000  -6.080   0.000   0.000  -0.000  -0.000  -2.325
 -0.004   0.000   0.000  -6.055  -0.000   0.003  -0.000  -0.000
  0.000  -0.004   0.000  -0.000  -6.003  -0.000   0.003  -0.000
 -2.378   0.000  -0.000   0.003  -0.000   8.654  -0.000   0.000
  0.000  -2.342  -0.000  -0.000   0.003  -0.000   8.631   0.000
 -0.000  -0.000  -2.325  -0.000  -0.000   0.000   0.000   8.619
  0.003  -0.000  -0.000  -2.342   0.000  -0.002  -0.000   0.000
 -0.000   0.003  -0.000   0.000  -2.378   0.000  -0.002   0.000
  0.000   0.000   0.003   0.000   0.000   0.000   0.000   0.001
  0.000   0.000   0.005   0.000   0.000   0.000   0.000   0.003
  0.000  -0.013  -0.000  -0.000   0.000   0.000   0.012  -0.000
 -0.000   0.000  -0.012   0.000  -0.000  -0.000  -0.000   0.010
  0.000  -0.000  -0.000  -0.013   0.000   0.000  -0.000  -0.000
  0.000  -0.015  -0.000   0.000   0.000   0.000   0.014  -0.000
  0.000   0.000  -0.013   0.000   0.000  -0.000  -0.000   0.011
  0.000   0.000  -0.000  -0.015   0.000   0.000  -0.000  -0.000
 pseudopotential strength for first ion, spin component:           2
 -6.003  -0.000   0.000  -0.004   0.000  -2.378   0.000  -0.000
 -0.000  -6.055   0.000   0.000  -0.004   0.000  -2.342  -0.000
  0.000   0.000  -6.080   0.000   0.000  -0.000  -0.000  -2.325
 -0.004   0.000   0.000  -6.055  -0.000   0.003  -0.000  -0.000
  0.000  -0.004   0.000  -0.000  -6.003  -0.000   0.003  -0.000
 -2.378   0.000  -0.000   0.003  -0.000   8.654  -0.000   0.000
  0.000  -2.342  -0.000  -0.000   0.003  -0.000   8.631   0.000
 -0.000  -0.000  -2.325  -0.000  -0.000   0.000   0.000   8.619
  0.003  -0.000  -0.000  -2.342   0.000  -0.002  -0.000   0.000
 -0.000   0.003  -0.000   0.000  -2.378   0.000  -0.002   0.000
  0.000   0.000   0.003   0.000   0.000   0.000   0.000   0.001
  0.000   0.000   0.005   0.000   0.000   0.000   0.000   0.003
  0.000  -0.013  -0.000  -0.000   0.000   0.000   0.012  -0.000
 -0.000   0.000  -0.012   0.000  -0.000  -0.000  -0.000   0.010
  0.000  -0.000  -0.000  -0.013   0.000   0.000  -0.000  -0.000
  0.000  -0.015  -0.000   0.000   0.000   0.000   0.014  -0.000
  0.000   0.000  -0.013   0.000   0.000  -0.000  -0.000   0.011
  0.000   0.000  -0.000  -0.015   0.000   0.000  -0.000  -0.000
 total augmentation occupancy for first ion, spin component:           1
  1.932   0.000  -0.000  -0.004  -0.000  -0.017  -0.000   0.000   0.005   0.000   0.000  -0.000  -0.000  -0.000   0.006   0.000
  0.000   1.928   0.000   0.000  -0.004  -0.000  -0.024  -0.000  -0.000   0.005   0.000  -0.000   0.009   0.000   0.000  -0.014
 -0.000   0.000   1.915   0.000  -0.000   0.000  -0.000  -0.018  -0.000   0.000  -0.064   0.028  -0.000   0.076  -0.000   0.000
 -0.004   0.000   0.000   1.928  -0.000   0.005  -0.000  -0.000  -0.024   0.000   0.000   0.000   0.000   0.000   0.009  -0.000
 -0.000  -0.004  -0.000  -0.000   1.932   0.000   0.005   0.000   0.000  -0.017   0.000  -0.000   0.006  -0.000   0.000  -0.001
 -0.017  -0.000   0.000   0.005   0.000   0.014  -0.000  -0.000   0.000  -0.000   0.000  -0.000  -0.000  -0.000   0.004   0.000
 -0.000  -0.024  -0.000  -0.000   0.005  -0.000   0.010  -0.000   0.000   0.000   0.000   0.000   0.019   0.000   0.000  -0.002
  0.000  -0.000  -0.018  -0.000   0.000  -0.000  -0.000   0.012  -0.000  -0.000  -0.022   0.001  -0.000   0.021  -0.000   0.000
  0.005  -0.000  -0.000  -0.024   0.000   0.000   0.000  -0.000   0.010   0.000   0.000   0.000   0.000  -0.000   0.019  -0.000
 -0.000   0.005   0.000   0.000  -0.017  -0.000   0.000  -0.000   0.000   0.014   0.000  -0.000   0.004  -0.000   0.000  -0.000
  0.000   0.000  -0.064  -0.000   0.000   0.000   0.000  -0.022   0.000   0.000   1.762  -0.151   0.000   0.177   0.000   0.000
 -0.000   0.000   0.028   0.000  -0.000  -0.000   0.000   0.001  -0.000  -0.000  -0.151   0.018   0.000  -0.025   0.000   0.000
 -0.000   0.009  -0.000   0.000   0.006  -0.000   0.019  -0.000   0.000   0.004   0.000   0.000   0.235   0.000   0.000  -0.015
 -0.000   0.000   0.076  -0.000  -0.000  -0.000   0.000   0.021   0.000  -0.000   0.177  -0.025  -0.000   0.116  -0.000  -0.000
  0.006   0.000  -0.000   0.009   0.000   0.004   0.000  -0.000   0.019   0.000   0.000   0.000   0.000   0.000   0.235  -0.000
  0.000  -0.014   0.000  -0.000  -0.001   0.000  -0.002   0.000  -0.000  -0.000   0.000  -0.000  -0.015   0.000  -0.000   0.001
  0.000  -0.000  -0.020   0.000   0.000   0.000   0.000  -0.001   0.000   0.000  -0.023   0.003   0.000  -0.010   0.000   0.000
 -0.001  -0.000   0.000  -0.014  -0.000  -0.000  -0.000   0.000  -0.002  -0.000  -0.000  -0.000  -0.000   0.000  -0.015   0.000
 total augmentation occupancy for first ion, spin component:           2
  0.000  -0.000   0.000   0.000  -0.000  -0.000  -0.000   0.000   0.000   0.000   0.000   0.000  -0.000  -0.000   0.000   0.000
 -0.000   0.000  -0.000   0.000   0.000  -0.000  -0.000  -0.000  -0.000   0.000   0.000   0.000   0.000  -0.000   0.000  -0.000
  0.000  -0.000  -0.000  -0.000   0.000   0.000  -0.000  -0.000  -0.000   0.000  -0.000  -0.000  -0.000   0.000  -0.000   0.000
  0.000   0.000  -0.000   0.000   0.000   0.000  -0.000  -0.000  -0.000   0.000   0.000  -0.000   0.000   0.000   0.000  -0.000
 -0.000   0.000   0.000   0.000   0.000   0.000   0.000   0.000   0.000  -0.000   0.000   0.000   0.000  -0.000   0.000  -0.000
 -0.000  -0.000   0.000   0.000   0.000  -0.000  -0.000   0.000   0.000   0.000  -0.000  -0.000   0.000   0.000  -0.000  -0.000
 -0.000  -0.000  -0.000  -0.000   0.000  -0.000  -0.000  -0.000  -0.000   0.000   0.000   0.000   0.000   0.000   0.000  -0.000
  0.000  -0.000  -0.000  -0.000   0.000   0.000  -0.000   0.000  -0.000   0.000   0.000   0.000   0.000  -0.000   0.000  -0.000
  0.000  -0.000  -0.000  -0.000   0.000   0.000  -0.000  -0.000  -0.000   0.000  -0.000   0.000   0.000   0.000   0.000  -0.000
 -0.000   0.000   0.000   0.000  -0.000  -0.000   0.000   0.000   0.000  -0.000  -0.000  -0.000  -0.000   0.000  -0.000   0.000
  0.000   0.000  -0.000   0.000   0.000  -0.000   0.000   0.000   0.000  -0.000  -0.000   0.000   0.000   0.000  -0.000  -0.000
  0.000   0.000  -0.000   0.000   0.000  -0.000   0.000   0.000   0.000  -0.000   0.000  -0.000   0.000   0.000   0.000  -0.000
 -0.000   0.000  -0.000   0.000   0.000   0.000   0.000   0.000   0.000  -0.000   0.000   0.000  -0.000   0.000  -0.000   0.000
 -0.000   0.000   0.000   0.000  -0.000   0.000   0.000  -0.000  -0.000   0.000   0.000   0.000   0.000  -0.000  -0.000  -0.000
  0.000   0.000  -0.000   0.000   0.000  -0.000   0.000   0.000   0.000  -0.000  -0.000  -0.000  -0.000  -0.000  -0.000   0.000
  0.000  -0.000   0.000  -0.000  -0.000  -0.000  -0.000  -0.000  -0.000   0.000  -0.000  -0.000   0.000   0.000   0.000  -0.000
 -0.000   0.000   0.000   0.000  -0.000   0.000   0.000  -0.000  -0.000   0.000  -0.000   0.000   0.000   0.000  -0.000   0.000
 -0.000  -0.000   0.000  -0.000  -0.000   0.000  -0.000  -0.000  -0.000   0.000   0.000  -0.000   0.000  -0.000   0.000  -0.000


------------------------ aborting loop because EDIFF is reached ----------------------------------------


    CHARGE:  cpu time      0.0522: real time      0.0525
    FORLOC:  cpu time      0.0012: real time      0.0012
    FORNL :  cpu time      0.0949: real time      0.0953
    STRESS:  cpu time      0.1074: real time      0.1079
    FORCOR:  cpu time      0.0188: real time      0.0189
    FORHAR:  cpu time      0.0029: real time      0.0029
    MIXING:  cpu time      0.0005: real time      0.0005
    OFIELD:  cpu time      0.0000: real time      0.0000

 ---------------------------------------------------------------------------------------------

         DFTD3 V3.0 Rev 1        
 Edisp (eV)   -3.68429

 E6    (eV) :    -1.5440
 E8    (eV) :    -2.1403
 % E8        : 58.09
    FORVDW:  cpu time      0.0723: real time      0.0726

  FORCE on cell =-STRESS in cart. coord.  units (eV):
  Direction    XX          YY          ZZ          XY          YZ          ZX
  --------------------------------------------------------------------------------------
  Alpha Z   285.34744   285.34744   285.34744
  Ewald   59499.55432 59499.55432-65377.90297    -0.00000    -0.00000    -0.00000
  Hartree 62745.23970 62745.23970-60924.32451     0.00000    -0.00000    -0.00000
  E(xc)    -521.07947  -521.07932  -521.07122    -0.00013     0.00000     0.00000
  Local  ************************125234.20778     0.00403    -0.00000    -0.00001
  n-local  -177.61084  -170.74905  -179.17805     5.94320    -1.14596     1.99103
  augment   759.93510   759.93958   753.47606    -0.00388    -0.00000    -0.00001
  Kinetic   756.18354   729.80801   733.76128   -22.84164    -2.24942     3.89641
  Fock        0.00000     0.00000     0.00000     0.00000     0.00000     0.00000
  vdW        -4.40097    -4.40097    -3.86046     0.00000     0.00000     0.00000
  -------------------------------------------------------------------------------------
  Total      -4.03605    -4.03605     0.45535    -0.00000    -0.00000    -0.00000
  in kB     -38.19698   -38.19698     4.30938    -0.00000    -0.00000    -0.00000
  external pressure =      -24.03 kB  Pullay stress =        0.00 kB


 VOLUME and BASIS-vectors are now :
 -----------------------------------------------------------------------------
  energy-cutoff  :      400.00
  volume of cell :      169.29
      direct lattice vectors                 reciprocal lattice vectors
     2.566797733  0.000000000  0.000000000     0.389590495 -0.224930177  0.000000000
     1.283398867  2.222912043  0.000000000     0.000000000  0.449860355  0.000000000
     0.000000000  0.000000000 29.670471191     0.000000000  0.000000000  0.033703543

  length of vectors
     2.566797733  2.566797733 29.670471191     0.449860355  0.449860355  0.033703543


 FORCES acting on ions
    electron-ion (+dipol)            ewald-force                    non-local-force                 convergence-correction
 -----------------------------------------------------------------------------------------------
   -.558E-05 -.322E-05 0.610E+04   0.107E-07 -.341E-08 -.609E+04   -.278E-16 0.000E+00 -.377E+01   0.114E-05 0.658E-06 0.106E+00
   0.837E-06 0.171E-05 0.438E+04   -.268E-07 0.284E-09 -.438E+04   0.278E-16 0.139E-16 0.310E+00   -.666E-06 -.385E-06 -.646E+00
   -.842E-05 -.458E-05 0.268E+04   0.257E-07 0.102E-07 -.267E+04   -.347E-17 0.000E+00 0.948E-01   -.940E-07 -.543E-07 -.787E+00
   -.101E-05 -.585E-06 0.985E+03   0.748E-09 -.103E-07 -.984E+03   0.867E-18 -.173E-17 -.963E+00   0.242E-05 0.139E-05 -.444E+00
   0.576E-05 0.455E-05 -.732E+03   -.259E-07 0.235E-09 0.732E+03   0.000E+00 0.173E-17 0.927E+00   -.194E-05 -.112E-05 -.651E+00
   -.868E-06 -.222E-06 -.242E+04   0.254E-07 0.102E-07 0.242E+04   -.867E-18 -.173E-17 -.211E-01   -.405E-06 -.234E-06 -.224E+00
   0.103E-05 0.596E-06 -.412E+04   0.101E-08 -.106E-07 0.412E+04   0.000E+00 0.139E-16 -.180E+00   0.154E-05 0.890E-06 0.302E+00
   0.910E-05 0.649E-05 -.584E+04   -.108E-07 0.544E-08 0.584E+04   -.208E-16 0.139E-16 0.435E+01   -.591E-06 -.341E-06 0.120E+00
   0.341E-06 0.255E-06 -.518E+03   -.327E-11 -.184E-08 0.513E+03   -.847E-21 0.000E+00 0.459E+01   -.459E-09 -.275E-09 0.367E-01
   0.876E-07 0.105E-06 -.496E+03   -.391E-12 -.211E-09 0.500E+03   0.000E+00 -.136E-19 -.482E+01   -.507E-10 -.372E-10 0.447E-01
 -----------------------------------------------------------------------------------------------
   0.126E-05 0.509E-05 0.161E+01   0.219E-12 -.563E-13 0.227E-12   -.243E-16 0.399E-16 0.524E+00   0.140E-05 0.810E-06 -.214E+01
 
 
 POSITION                                       TOTAL-FORCE (eV/Angst)
 -----------------------------------------------------------------------------------
     -0.00000     -0.00000      0.05918         0.000000     -0.000000     -0.061492
      1.28340      0.74097      2.04539        -0.000000     -0.000000      0.017953
      2.56680      1.48194      4.06205         0.000000     -0.000000      0.002748
      0.00000      0.00000      6.09257         0.000000     -0.000000     -0.060097
      1.28340      0.74097      8.09492         0.000000     -0.000000      0.050571
      2.56680      1.48194     10.12449        -0.000000     -0.000000      0.018022
      0.00000     -0.00000     12.14452         0.000000     -0.000000     -0.037616
      1.28340      0.74097     14.12944        -0.000000      0.000000      0.040637
      1.28340      0.74097     16.18130        -0.000000     -0.000000     -0.084733
      1.28340      0.74097     16.94004        -0.000000     -0.000000      0.114008
 -----------------------------------------------------------------------------------
    total drift:                                0.000003      0.000006     -0.008240


--------------------------------------------------------------------------------------------------------



  FREE ENERGIE OF THE ION-ELECTRON SYSTEM (eV)
  ---------------------------------------------------
  free  energy   TOTEN  =       -40.88941854 eV

  energy  without entropy=      -40.86221947  energy(sigma->0) =      -40.88035218
 
 d Force =-0.7117981E-03[-0.139E-02,-0.293E-04]  d Energy =-0.6393998E-03-0.724E-04
 d Force =-0.3895987E+02[-0.390E+02,-0.389E+02]  d Ewald  =-0.3895989E+02 0.108E-04


--------------------------------------------------------------------------------------------------------


    POTLOK:  cpu time      0.0257: real time      0.0258


--------------------------------------------------------------------------------------------------------


 stress matrix after NEB project (eV)
     -4.03605     -0.00000     -0.00000
     -0.00000     -4.03605      0.00000
      0.00000     -0.00000      0.45535
  FORCES: max atom, RMS     0.114008    0.058180
  FORCE total and by dimension    0.183980    0.114008
  Stress total and by dimension    5.725975    4.036053
 -----------------------------------------------------------------------------
|                                                                             |
|     EEEEEEE  RRRRRR   RRRRRR   OOOOOOO  RRRRRR      ###     ###     ###     |
|     E        R     R  R     R  O     O  R     R     ###     ###     ###     |
|     E        R     R  R     R  O     O  R     R     ###     ###     ###     |
|     EEEEE    RRRRRR   RRRRRR   O     O  RRRRRR       #       #       #      |
|     E        R   R    R   R    O     O  R   R                               |
|     E        R    R   R    R   O     O  R    R      ###     ###     ###     |
|     EEEEEEE  R     R  R     R  OOOOOOO  R     R     ###     ###     ###     |
|                                                                             |
|     ZBRENT: fatal error in bracketing                                       |
|      please rerun with smaller EDIFF, or copy CONTCAR                       |
|      to POSCAR and continue                                                 |
|                                                                             |
|       ---->  I REFUSE TO CONTINUE WITH THIS SICK JOB ... BYE!!! <----       |
|                                                                             |
 -----------------------------------------------------------------------------

