unknown system                          
           1
     2.566798    0.000000    0.000000
     1.283399    2.222912    0.000000
     0.000000    0.000000   29.670471
   Cu   H 
     8     2
Direct configuration=     1
   0.00000000  0.00000000  0.00000000
   0.33333333  0.33333333  0.07063526
   0.66666667  0.66666667  0.13908594
   0.00000000  0.00000000  0.20816512
   0.33333333  0.33333333  0.27656240
   0.66666667  0.66666667  0.34556034
   0.00000000  0.00000000  0.41400593
   0.33333333  0.33333333  0.48139269
   0.33333333  0.33333333  0.53425930
   0.33333333  0.33333333  0.55940215
Direct configuration=     2
  -0.00000000 -0.00000000  0.00076222
   0.33333333  0.33333333  0.06998978
   0.66666667  0.66666667  0.13909967
   0.00000000 -0.00000000  0.20815970
   0.33333333  0.33333333  0.27653906
   0.66666667  0.66666667  0.34549737
   0.00000000 -0.00000000  0.41389050
   0.33333333  0.33333333  0.47898952
   0.33333333  0.33333333  0.53479622
   0.33333333  0.33333333  0.56134509
Direct configuration=     3
  -0.00000000 -0.00000000  0.00111533
   0.33333333  0.33333333  0.06969075
   0.66666667  0.66666667  0.13910603
   0.00000000 -0.00000000  0.20815719
   0.33333333  0.33333333  0.27652825
   0.66666667  0.66666667  0.34546820
   0.00000000 -0.00000000  0.41383703
   0.33333333  0.33333333  0.47787620
   0.33333333  0.33333333  0.53504496
   0.33333333  0.33333333  0.56224519
Direct configuration=     4
   0.00000000 -0.00000000  0.00197097
   0.33333333  0.33333333  0.06925500
   0.66666667  0.66666667  0.13892731
   0.00000000 -0.00000000  0.20814432
   0.33333333  0.33333333  0.27648322
   0.66666667  0.66666667  0.34530419
   0.00000000 -0.00000000  0.41258960
   0.33333333  0.33333333  0.47632422
   0.33333333  0.33333333  0.53756903
   0.33333333  0.33333333  0.56250129
Direct configuration=     5
   0.00000000 -0.00000000  0.00181186
   0.33333333  0.33333333  0.06933603
   0.66666667  0.66666667  0.13896054
   0.00000000 -0.00000000  0.20814671
   0.33333333  0.33333333  0.27649159
   0.66666667  0.66666667  0.34533468
   0.00000000 -0.00000000  0.41282156
   0.33333333  0.33333333  0.47661280
   0.33333333  0.33333333  0.53709969
   0.33333333  0.33333333  0.56245367
Direct configuration=     6
  -0.00000000 -0.00000000  0.00228037
   0.33333333  0.33333333  0.06938949
   0.66666667  0.66666667  0.13868482
   0.00000000 -0.00000000  0.20810411
   0.33333333  0.33333333  0.27642142
   0.66666667  0.66666667  0.34496882
   0.00000000 -0.00000000  0.41130058
   0.33333333  0.33333333  0.47635390
   0.33333333  0.33333333  0.53790344
   0.33333333  0.33333333  0.56366218
Direct configuration=     7
  -0.00000000 -0.00000000  0.00265276
   0.33333333  0.33333333  0.06943199
   0.66666667  0.66666667  0.13846565
   0.00000000 -0.00000000  0.20807025
   0.33333333  0.33333333  0.27636565
   0.66666667  0.66666667  0.34467801
   0.00000000 -0.00000000  0.41009160
   0.33333333  0.33333333  0.47614810
   0.33333333  0.33333333  0.53854233
   0.33333333  0.33333333  0.56462278
Direct configuration=     8
   0.00000000 -0.00000000  0.00291389
   0.33333333  0.33333333  0.06988956
   0.66666667  0.66666667  0.13828875
   0.00000000  0.00000000  0.20786068
   0.33333333  0.33333333  0.27606159
   0.66666667  0.66666667  0.34349282
   0.00000000 -0.00000000  0.40936929
   0.33333333  0.33333333  0.47587746
   0.33333333  0.33333333  0.53987371
   0.33333333  0.33333333  0.56544138
Direct configuration=     9
   0.00000000 -0.00000000  0.00305072
   0.33333333  0.33333333  0.07012932
   0.66666667  0.66666667  0.13819605
   0.00000000  0.00000000  0.20775087
   0.33333333  0.33333333  0.27590226
   0.66666667  0.66666667  0.34287179
   0.00000000 -0.00000000  0.40899081
   0.33333333  0.33333333  0.47573564
   0.33333333  0.33333333  0.54057134
   0.33333333  0.33333333  0.56587033
Direct configuration=    10
   0.00000000 -0.00000000  0.00318452
   0.33333333  0.33333333  0.07044240
   0.66666667  0.66666667  0.13823747
   0.00000000  0.00000000  0.20746721
   0.33333333  0.33333333  0.27532986
   0.66666667  0.66666667  0.34193362
   0.00000000 -0.00000000  0.40880917
   0.33333333  0.33333333  0.47545899
   0.33333333  0.33333333  0.54115151
   0.33333333  0.33333333  0.56705437
Direct configuration=    11
   0.00000000 -0.00000000  0.00322721
   0.33333333  0.33333333  0.07054229
   0.66666667  0.66666667  0.13825069
   0.00000000  0.00000000  0.20737671
   0.33333333  0.33333333  0.27514723
   0.66666667  0.66666667  0.34163430
   0.00000000 -0.00000000  0.40875122
   0.33333333  0.33333333  0.47537073
   0.33333333  0.33333333  0.54133662
   0.33333333  0.33333333  0.56743214
Direct configuration=    12
   0.00000000 -0.00000000  0.00331926
   0.33333333  0.33333333  0.07066725
   0.66666667  0.66666667  0.13845341
   0.00000000  0.00000000  0.20702859
   0.33333333  0.33333333  0.27435677
   0.66666667  0.66666667  0.34117638
   0.00000000 -0.00000000  0.40870278
   0.33333333  0.33333333  0.47518062
   0.33333333  0.33333333  0.54215935
   0.33333333  0.33333333  0.56802472
Direct configuration=    13
   0.00000000 -0.00000000  0.00344034
   0.33333333  0.33333333  0.07083161
   0.66666667  0.66666667  0.13872005
   0.00000000  0.00000000  0.20657070
   0.33333333  0.33333333  0.27331706
   0.66666667  0.66666667  0.34057407
   0.00000000 -0.00000000  0.40863908
   0.33333333  0.33333333  0.47493056
   0.33333333  0.33333333  0.54324152
   0.33333333  0.33333333  0.56880415
Direct configuration=    14
   0.00000000 -0.00000000  0.00340238
   0.33333333  0.33333333  0.07078009
   0.66666667  0.66666667  0.13863645
   0.00000000  0.00000000  0.20671425
   0.33333333  0.33333333  0.27364301
   0.66666667  0.66666667  0.34076290
   0.00000000 -0.00000000  0.40865905
   0.33333333  0.33333333  0.47500895
   0.33333333  0.33333333  0.54290226
   0.33333333  0.33333333  0.56855980
Direct configuration=    15
   0.00000000 -0.00000000  0.00341449
   0.33333333  0.33333333  0.07079653
   0.66666667  0.66666667  0.13866314
   0.00000000  0.00000000  0.20666843
   0.33333333  0.33333333  0.27353896
   0.66666667  0.66666667  0.34070262
   0.00000000 -0.00000000  0.40865267
   0.33333333  0.33333333  0.47498393
   0.33333333  0.33333333  0.54301055
   0.33333333  0.33333333  0.56863780
Direct configuration=    16
   0.00000000 -0.00000000  0.00340808
   0.33333333  0.33333333  0.07078782
   0.66666667  0.66666667  0.13864901
   0.00000000  0.00000000  0.20669269
   0.33333333  0.33333333  0.27359407
   0.66666667  0.66666667  0.34073454
   0.00000000 -0.00000000  0.40865605
   0.33333333  0.33333333  0.47499718
   0.33333333  0.33333333  0.54295320
   0.33333333  0.33333333  0.56859649
Direct configuration=    17
   0.00000000 -0.00000000  0.00341129
   0.33333333  0.33333333  0.07079218
   0.66666667  0.66666667  0.13865607
   0.00000000  0.00000000  0.20668056
   0.33333333  0.33333333  0.27356651
   0.66666667  0.66666667  0.34071858
   0.00000000 -0.00000000  0.40865436
   0.33333333  0.33333333  0.47499055
   0.33333333  0.33333333  0.54298188
   0.33333333  0.33333333  0.56861714
Direct configuration=    18
   0.00000000 -0.00000000  0.00347223
   0.33333333  0.33333333  0.07071796
   0.66666667  0.66666667  0.13863336
   0.00000000  0.00000000  0.20641075
   0.33333333  0.33333333  0.27324310
   0.66666667  0.66666667  0.34085169
   0.00000000 -0.00000000  0.40846792
   0.33333333  0.33333333  0.47511266
   0.33333333  0.33333333  0.54318885
   0.33333333  0.33333333  0.56897062
Direct configuration=    19
   0.00000000 -0.00000000  0.00350143
   0.33333333  0.33333333  0.07068239
   0.66666667  0.66666667  0.13862248
   0.00000000  0.00000000  0.20628145
   0.33333333  0.33333333  0.27308812
   0.66666667  0.66666667  0.34091548
   0.00000000 -0.00000000  0.40837858
   0.33333333  0.33333333  0.47517117
   0.33333333  0.33333333  0.54328803
   0.33333333  0.33333333  0.56914002
Direct configuration=    20
   0.00000000 -0.00000000  0.00350149
   0.33333333  0.33333333  0.07058788
   0.66666667  0.66666667  0.13840795
   0.00000000  0.00000000  0.20600134
   0.33333333  0.33333333  0.27299881
   0.66666667  0.66666667  0.34102219
   0.00000000 -0.00000000  0.40834121
   0.33333333  0.33333333  0.47533224
   0.33333333  0.33333333  0.54365277
   0.33333333  0.33333333  0.56922325
Direct configuration=    21
   0.00000000 -0.00000000  0.00350148
   0.33333333  0.33333333  0.07060263
   0.66666667  0.66666667  0.13844143
   0.00000000  0.00000000  0.20604505
   0.33333333  0.33333333  0.27301275
   0.66666667  0.66666667  0.34100554
   0.00000000 -0.00000000  0.40834704
   0.33333333  0.33333333  0.47530710
   0.33333333  0.33333333  0.54359585
   0.33333333  0.33333333  0.56921026
Direct configuration=    22
   0.00000000 -0.00000000  0.00350148
   0.33333333  0.33333333  0.07059569
   0.66666667  0.66666667  0.13842566
   0.00000000  0.00000000  0.20602446
   0.33333333  0.33333333  0.27300619
   0.66666667  0.66666667  0.34101338
   0.00000000 -0.00000000  0.40834430
   0.33333333  0.33333333  0.47531894
   0.33333333  0.33333333  0.54362266
   0.33333333  0.33333333  0.56921637
Direct configuration=    23
   0.00000000 -0.00000000  0.00344459
   0.33333333  0.33333333  0.07048428
   0.66666667  0.66666667  0.13810185
   0.00000000  0.00000000  0.20580051
   0.33333333  0.33333333  0.27305780
   0.66666667  0.66666667  0.34101321
   0.00000000 -0.00000000  0.40844875
   0.33333333  0.33333333  0.47543421
   0.33333333  0.33333333  0.54379717
   0.33333333  0.33333333  0.56948676
Direct configuration=    24
   0.00000000 -0.00000000  0.00342131
   0.33333333  0.33333333  0.07043868
   0.66666667  0.66666667  0.13796930
   0.00000000  0.00000000  0.20570884
   0.33333333  0.33333333  0.27307892
   0.66666667  0.66666667  0.34101314
   0.00000000 -0.00000000  0.40849151
   0.33333333  0.33333333  0.47548140
   0.33333333  0.33333333  0.54386860
   0.33333333  0.33333333  0.56959743
Direct configuration=    25
   0.00000000 -0.00000000  0.00337474
   0.33333333  0.33333333  0.07034749
   0.66666667  0.66666667  0.13770422
   0.00000000  0.00000000  0.20552550
   0.33333333  0.33333333  0.27312117
   0.66666667  0.66666667  0.34101300
   0.00000000 -0.00000000  0.40857702
   0.33333333  0.33333333  0.47557576
   0.33333333  0.33333333  0.54401146
   0.33333333  0.33333333  0.56981877
Direct configuration=    26
   0.00000000 -0.00000000  0.00339011
   0.33333333  0.33333333  0.07037759
   0.66666667  0.66666667  0.13779171
   0.00000000  0.00000000  0.20558601
   0.33333333  0.33333333  0.27310723
   0.66666667  0.66666667  0.34101305
   0.00000000 -0.00000000  0.40854880
   0.33333333  0.33333333  0.47554462
   0.33333333  0.33333333  0.54396430
   0.33333333  0.33333333  0.56974572
Direct configuration=    27
   0.00000000 -0.00000000  0.00338114
   0.33333333  0.33333333  0.07036003
   0.66666667  0.66666667  0.13774067
   0.00000000  0.00000000  0.20555071
   0.33333333  0.33333333  0.27311536
   0.66666667  0.66666667  0.34101302
   0.00000000 -0.00000000  0.40856527
   0.33333333  0.33333333  0.47556279
   0.33333333  0.33333333  0.54399181
   0.33333333  0.33333333  0.56978834
Direct configuration=    28
   0.00000000 -0.00000000  0.00338562
   0.33333333  0.33333333  0.07036881
   0.66666667  0.66666667  0.13776619
   0.00000000  0.00000000  0.20556836
   0.33333333  0.33333333  0.27311129
   0.66666667  0.66666667  0.34101303
   0.00000000 -0.00000000  0.40855703
   0.33333333  0.33333333  0.47555370
   0.33333333  0.33333333  0.54397806
   0.33333333  0.33333333  0.56976703
Direct configuration=    29
   0.00000000 -0.00000000  0.00338376
   0.33333333  0.33333333  0.07036516
   0.66666667  0.66666667  0.13775560
   0.00000000  0.00000000  0.20556103
   0.33333333  0.33333333  0.27311298
   0.66666667  0.66666667  0.34101303
   0.00000000 -0.00000000  0.40856045
   0.33333333  0.33333333  0.47555747
   0.33333333  0.33333333  0.54398377
   0.33333333  0.33333333  0.56977587
Direct configuration=    30
   0.00000000 -0.00000000  0.00338531
   0.33333333  0.33333333  0.07036818
   0.66666667  0.66666667  0.13776437
   0.00000000  0.00000000  0.20556711
   0.33333333  0.33333333  0.27311158
   0.66666667  0.66666667  0.34101303
   0.00000000 -0.00000000  0.40855762
   0.33333333  0.33333333  0.47555435
   0.33333333  0.33333333  0.54397904
   0.33333333  0.33333333  0.56976854
Direct configuration=    31
   0.00000000 -0.00000000  0.00338438
   0.33333333  0.33333333  0.07036637
   0.66666667  0.66666667  0.13775910
   0.00000000  0.00000000  0.20556346
   0.33333333  0.33333333  0.27311242
   0.66666667  0.66666667  0.34101303
   0.00000000 -0.00000000  0.40855932
   0.33333333  0.33333333  0.47555623
   0.33333333  0.33333333  0.54398188
   0.33333333  0.33333333  0.56977295
Direct configuration=    32
   0.00000000 -0.00000000  0.00338484
   0.33333333  0.33333333  0.07036727
   0.66666667  0.66666667  0.13776174
   0.00000000  0.00000000  0.20556528
   0.33333333  0.33333333  0.27311200
   0.66666667  0.66666667  0.34101303
   0.00000000 -0.00000000  0.40855847
   0.33333333  0.33333333  0.47555529
   0.33333333  0.33333333  0.54398046
   0.33333333  0.33333333  0.56977075
Direct configuration=    33
   0.00000000 -0.00000000  0.00338454
   0.33333333  0.33333333  0.07036669
   0.66666667  0.66666667  0.13776003
   0.00000000  0.00000000  0.20556410
   0.33333333  0.33333333  0.27311227
   0.66666667  0.66666667  0.34101303
   0.00000000 -0.00000000  0.40855902
   0.33333333  0.33333333  0.47555589
   0.33333333  0.33333333  0.54398138
   0.33333333  0.33333333  0.56977217
Direct configuration=    34
   0.00000000 -0.00000000  0.00322684
   0.33333333  0.33333333  0.07012464
   0.66666667  0.66666667  0.13748803
   0.00000000  0.00000000  0.20547926
   0.33333333  0.33333333  0.27308284
   0.66666667  0.66666667  0.34101481
   0.00000000 -0.00000000  0.40875995
   0.33333333  0.33333333  0.47565609
   0.33333333  0.33333333  0.54431521
   0.33333333  0.33333333  0.56992146
Direct configuration=    35
   0.00000000 -0.00000000  0.00324718
   0.33333333  0.33333333  0.07015585
   0.66666667  0.66666667  0.13752310
   0.00000000  0.00000000  0.20549019
   0.33333333  0.33333333  0.27308664
   0.66666667  0.66666667  0.34101458
   0.00000000 -0.00000000  0.40873404
   0.33333333  0.33333333  0.47564317
   0.33333333  0.33333333  0.54427217
   0.33333333  0.33333333  0.56990221
Direct configuration=    36
   0.00000000 -0.00000000  0.00322984
   0.33333333  0.33333333  0.07012924
   0.66666667  0.66666667  0.13749320
   0.00000000  0.00000000  0.20548087
   0.33333333  0.33333333  0.27308340
   0.66666667  0.66666667  0.34101478
   0.00000000 -0.00000000  0.40875613
   0.33333333  0.33333333  0.47565419
   0.33333333  0.33333333  0.54430887
   0.33333333  0.33333333  0.56991862
Direct configuration=    37
   0.00000000 -0.00000000  0.00300413
   0.33333333  0.33333333  0.06985672
   0.66666667  0.66666667  0.13735687
   0.00000000  0.00000000  0.20548462
   0.33333333  0.33333333  0.27300048
   0.66666667  0.66666667  0.34105585
   0.00000000 -0.00000000  0.40890469
   0.33333333  0.33333333  0.47574869
   0.33333333  0.33333333  0.54446801
   0.33333333  0.33333333  0.57018907
Direct configuration=    38
   0.00000000 -0.00000000  0.00285254
   0.33333333  0.33333333  0.06967368
   0.66666667  0.66666667  0.13726531
   0.00000000  0.00000000  0.20548714
   0.33333333  0.33333333  0.27294478
   0.66666667  0.66666667  0.34108343
   0.00000000 -0.00000000  0.40900447
   0.33333333  0.33333333  0.47581217
   0.33333333  0.33333333  0.54457489
   0.33333333  0.33333333  0.57037071
Direct configuration=    39
   0.00000000 -0.00000000  0.00254936
   0.33333333  0.33333333  0.06930762
   0.66666667  0.66666667  0.13708218
   0.00000000  0.00000000  0.20549219
   0.33333333  0.33333333  0.27283339
   0.66666667  0.66666667  0.34113860
   0.00000000 -0.00000000  0.40920402
   0.33333333  0.33333333  0.47593912
   0.33333333  0.33333333  0.54478865
   0.33333333  0.33333333  0.57073400
Direct configuration=    40
   0.00000000 -0.00000000  0.00264518
   0.33333333  0.33333333  0.06942331
   0.66666667  0.66666667  0.13714006
   0.00000000  0.00000000  0.20549059
   0.33333333  0.33333333  0.27286859
   0.66666667  0.66666667  0.34112116
   0.00000000 -0.00000000  0.40914095
   0.33333333  0.33333333  0.47589900
   0.33333333  0.33333333  0.54472109
   0.33333333  0.33333333  0.57061918
Direct configuration=    41
   0.00000000 -0.00000000  0.00255067
   0.33333333  0.33333333  0.06932750
   0.66666667  0.66666667  0.13709674
   0.00000000  0.00000000  0.20548360
   0.33333333  0.33333333  0.27284563
   0.66666667  0.66666667  0.34114011
   0.00000000 -0.00000000  0.40918636
   0.33333333  0.33333333  0.47594290
   0.33333333  0.33333333  0.54480506
   0.33333333  0.33333333  0.57069055
Direct configuration=    42
   0.00000000 -0.00000000  0.00241351
   0.33333333  0.33333333  0.06918847
   0.66666667  0.66666667  0.13703388
   0.00000000  0.00000000  0.20547345
   0.33333333  0.33333333  0.27281232
   0.66666667  0.66666667  0.34116760
   0.00000000 -0.00000000  0.40925226
   0.33333333  0.33333333  0.47600661
   0.33333333  0.33333333  0.54492691
   0.33333333  0.33333333  0.57079412
Direct configuration=    43
   0.00000000 -0.00000000  0.00213921
   0.33333333  0.33333333  0.06891040
   0.66666667  0.66666667  0.13690816
   0.00000000  0.00000000  0.20545315
   0.33333333  0.33333333  0.27274568
   0.66666667  0.66666667  0.34122258
   0.00000000 -0.00000000  0.40938405
   0.33333333  0.33333333  0.47613403
   0.33333333  0.33333333  0.54517060
   0.33333333  0.33333333  0.57100127
Direct configuration=    44
   0.00000000 -0.00000000  0.00209955
   0.33333333  0.33333333  0.06891769
   0.66666667  0.66666667  0.13690746
   0.00000000  0.00000000  0.20542240
   0.33333333  0.33333333  0.27276811
   0.66666667  0.66666667  0.34122497
   0.00000000 -0.00000000  0.40936463
   0.33333333  0.33333333  0.47615550
   0.33333333  0.33333333  0.54522449
   0.33333333  0.33333333  0.57098433
Direct configuration=    45
   0.00000000 -0.00000000  0.00204528
   0.33333333  0.33333333  0.06892768
   0.66666667  0.66666667  0.13690650
   0.00000000  0.00000000  0.20538032
   0.33333333  0.33333333  0.27279881
   0.66666667  0.66666667  0.34122824
   0.00000000 -0.00000000  0.40933807
   0.33333333  0.33333333  0.47618488
   0.33333333  0.33333333  0.54529822
   0.33333333  0.33333333  0.57096115
Direct configuration=    46
   0.00000000 -0.00000000  0.00193674
   0.33333333  0.33333333  0.06894764
   0.66666667  0.66666667  0.13690457
   0.00000000  0.00000000  0.20529617
   0.33333333  0.33333333  0.27286019
   0.66666667  0.66666667  0.34123477
   0.00000000 -0.00000000  0.40928495
   0.33333333  0.33333333  0.47624362
   0.33333333  0.33333333  0.54544569
   0.33333333  0.33333333  0.57091479
Direct configuration=    47
   0.00000000 -0.00000000  0.00200692
   0.33333333  0.33333333  0.06893473
   0.66666667  0.66666667  0.13690582
   0.00000000  0.00000000  0.20535059
   0.33333333  0.33333333  0.27282050
   0.66666667  0.66666667  0.34123054
   0.00000000 -0.00000000  0.40931930
   0.33333333  0.33333333  0.47620563
   0.33333333  0.33333333  0.54535032
   0.33333333  0.33333333  0.57094477
Direct configuration=    48
   0.00000000 -0.00000000  0.00197183
   0.33333333  0.33333333  0.06894119
   0.66666667  0.66666667  0.13690520
   0.00000000  0.00000000  0.20532338
   0.33333333  0.33333333  0.27284035
   0.66666667  0.66666667  0.34123266
   0.00000000 -0.00000000  0.40930213
   0.33333333  0.33333333  0.47622463
   0.33333333  0.33333333  0.54539801
   0.33333333  0.33333333  0.57092978
Direct configuration=    49
   0.00000000 -0.00000000  0.00199461
   0.33333333  0.33333333  0.06893700
   0.66666667  0.66666667  0.13690560
   0.00000000  0.00000000  0.20534104
   0.33333333  0.33333333  0.27282746
   0.66666667  0.66666667  0.34123129
   0.00000000 -0.00000000  0.40931327
   0.33333333  0.33333333  0.47621230
   0.33333333  0.33333333  0.54536706
   0.33333333  0.33333333  0.57093951
Direct configuration=    50
   0.00000000 -0.00000000  0.00192939
   0.33333333  0.33333333  0.06895667
   0.66666667  0.66666667  0.13690922
   0.00000000  0.00000000  0.20528727
   0.33333333  0.33333333  0.27287188
   0.66666667  0.66666667  0.34123873
   0.00000000 -0.00000000  0.40927188
   0.33333333  0.33333333  0.47625128
   0.33333333  0.33333333  0.54537240
   0.33333333  0.33333333  0.57098041
Direct configuration=    51
   0.00000000 -0.00000000  0.00189664
   0.33333333  0.33333333  0.06896655
   0.66666667  0.66666667  0.13691103
   0.00000000  0.00000000  0.20526027
   0.33333333  0.33333333  0.27289419
   0.66666667  0.66666667  0.34124247
   0.00000000 -0.00000000  0.40925109
   0.33333333  0.33333333  0.47627086
   0.33333333  0.33333333  0.54537508
   0.33333333  0.33333333  0.57100095
Direct configuration=    52
   0.00000000 -0.00000000  0.00183115
   0.33333333  0.33333333  0.06898631
   0.66666667  0.66666667  0.13691466
   0.00000000  0.00000000  0.20520627
   0.33333333  0.33333333  0.27293879
   0.66666667  0.66666667  0.34124994
   0.00000000 -0.00000000  0.40920952
   0.33333333  0.33333333  0.47631001
   0.33333333  0.33333333  0.54538045
   0.33333333  0.33333333  0.57104203
Direct configuration=    53
   0.00000000 -0.00000000  0.00181552
   0.33333333  0.33333333  0.06899102
   0.66666667  0.66666667  0.13691553
   0.00000000  0.00000000  0.20519339
   0.33333333  0.33333333  0.27294944
   0.66666667  0.66666667  0.34125173
   0.00000000 -0.00000000  0.40919960
   0.33333333  0.33333333  0.47631935
   0.33333333  0.33333333  0.54538173
   0.33333333  0.33333333  0.57105183
Direct configuration=    54
   0.00000000 -0.00000000  0.00182235
   0.33333333  0.33333333  0.06898896
   0.66666667  0.66666667  0.13691515
   0.00000000  0.00000000  0.20519901
   0.33333333  0.33333333  0.27294479
   0.66666667  0.66666667  0.34125095
   0.00000000 -0.00000000  0.40920393
   0.33333333  0.33333333  0.47631527
   0.33333333  0.33333333  0.54538117
   0.33333333  0.33333333  0.57104755
Direct configuration=    55
   0.00000000 -0.00000000  0.00181576
   0.33333333  0.33333333  0.06899095
   0.66666667  0.66666667  0.13691552
   0.00000000  0.00000000  0.20519359
   0.33333333  0.33333333  0.27294927
   0.66666667  0.66666667  0.34125170
   0.00000000 -0.00000000  0.40919975
   0.33333333  0.33333333  0.47631921
   0.33333333  0.33333333  0.54538171
   0.33333333  0.33333333  0.57105168
Direct configuration=    56
   0.00000000 -0.00000000  0.00181905
   0.33333333  0.33333333  0.06898996
   0.66666667  0.66666667  0.13691533
   0.00000000  0.00000000  0.20519630
   0.33333333  0.33333333  0.27294703
   0.66666667  0.66666667  0.34125132
   0.00000000 -0.00000000  0.40920184
   0.33333333  0.33333333  0.47631724
   0.33333333  0.33333333  0.54538144
   0.33333333  0.33333333  0.57104961
Direct configuration=    57
   0.00000000 -0.00000000  0.00181783
   0.33333333  0.33333333  0.06899033
   0.66666667  0.66666667  0.13691540
   0.00000000  0.00000000  0.20519529
   0.33333333  0.33333333  0.27294786
   0.66666667  0.66666667  0.34125146
   0.00000000 -0.00000000  0.40920106
   0.33333333  0.33333333  0.47631797
   0.33333333  0.33333333  0.54538154
   0.33333333  0.33333333  0.57105038
Direct configuration=    58
   0.00000000 -0.00000000  0.00181790
   0.33333333  0.33333333  0.06899031
   0.66666667  0.66666667  0.13691540
   0.00000000  0.00000000  0.20519535
   0.33333333  0.33333333  0.27294782
   0.66666667  0.66666667  0.34125145
   0.00000000 -0.00000000  0.40920110
   0.33333333  0.33333333  0.47631793
   0.33333333  0.33333333  0.54538153
   0.33333333  0.33333333  0.57105034
Direct configuration=    59
   0.00000000 -0.00000000  0.00181787
   0.33333333  0.33333333  0.06899032
   0.66666667  0.66666667  0.13691540
   0.00000000  0.00000000  0.20519532
   0.33333333  0.33333333  0.27294784
   0.66666667  0.66666667  0.34125146
   0.00000000 -0.00000000  0.40920109
   0.33333333  0.33333333  0.47631795
   0.33333333  0.33333333  0.54538153
   0.33333333  0.33333333  0.57105036
Direct configuration=    60
   0.00000000 -0.00000000  0.00181785
   0.33333333  0.33333333  0.06899032
   0.66666667  0.66666667  0.13691540
   0.00000000  0.00000000  0.20519531
   0.33333333  0.33333333  0.27294785
   0.66666667  0.66666667  0.34125146
   0.00000000 -0.00000000  0.40920108
   0.33333333  0.33333333  0.47631796
   0.33333333  0.33333333  0.54538154
   0.33333333  0.33333333  0.57105037
Direct configuration=    61
   0.00000000 -0.00000000  0.00181784
   0.33333333  0.33333333  0.06899032
   0.66666667  0.66666667  0.13691540
   0.00000000  0.00000000  0.20519530
   0.33333333  0.33333333  0.27294786
   0.66666667  0.66666667  0.34125146
   0.00000000 -0.00000000  0.40920107
   0.33333333  0.33333333  0.47631797
   0.33333333  0.33333333  0.54538154
   0.33333333  0.33333333  0.57105037
Direct configuration=    62
   0.00000000 -0.00000000  0.00181784
   0.33333333  0.33333333  0.06899032
   0.66666667  0.66666667  0.13691540
   0.00000000  0.00000000  0.20519530
   0.33333333  0.33333333  0.27294786
   0.66666667  0.66666667  0.34125146
   0.00000000 -0.00000000  0.40920107
   0.33333333  0.33333333  0.47631797
   0.33333333  0.33333333  0.54538154
   0.33333333  0.33333333  0.57105038
Direct configuration=    63
   0.00000000 -0.00000000  0.00181784
   0.33333333  0.33333333  0.06899033
   0.66666667  0.66666667  0.13691540
   0.00000000  0.00000000  0.20519530
   0.33333333  0.33333333  0.27294786
   0.66666667  0.66666667  0.34125146
   0.00000000 -0.00000000  0.40920107
   0.33333333  0.33333333  0.47631797
   0.33333333  0.33333333  0.54538154
   0.33333333  0.33333333  0.57105038
Direct configuration=    64
   0.00000000 -0.00000000  0.00181784
   0.33333333  0.33333333  0.06899033
   0.66666667  0.66666667  0.13691540
   0.00000000  0.00000000  0.20519529
   0.33333333  0.33333333  0.27294786
   0.66666667  0.66666667  0.34125146
   0.00000000 -0.00000000  0.40920106
   0.33333333  0.33333333  0.47631797
   0.33333333  0.33333333  0.54538154
   0.33333333  0.33333333  0.57105038
Direct configuration=    65
   0.00000000 -0.00000000  0.00181783
   0.33333333  0.33333333  0.06899033
   0.66666667  0.66666667  0.13691540
   0.00000000  0.00000000  0.20519529
   0.33333333  0.33333333  0.27294786
   0.66666667  0.66666667  0.34125146
   0.00000000 -0.00000000  0.40920106
   0.33333333  0.33333333  0.47631797
   0.33333333  0.33333333  0.54538154
   0.33333333  0.33333333  0.57105038
Direct configuration=    66
   0.00000000 -0.00000000  0.00181783
   0.33333333  0.33333333  0.06899033
   0.66666667  0.66666667  0.13691540
   0.00000000  0.00000000  0.20519529
   0.33333333  0.33333333  0.27294786
   0.66666667  0.66666667  0.34125146
   0.00000000 -0.00000000  0.40920106
   0.33333333  0.33333333  0.47631797
   0.33333333  0.33333333  0.54538154
   0.33333333  0.33333333  0.57105038
Direct configuration=    67
   0.00000000 -0.00000000  0.00181783
   0.33333333  0.33333333  0.06899033
   0.66666667  0.66666667  0.13691540
   0.00000000  0.00000000  0.20519529
   0.33333333  0.33333333  0.27294786
   0.66666667  0.66666667  0.34125146
   0.00000000 -0.00000000  0.40920106
   0.33333333  0.33333333  0.47631797
   0.33333333  0.33333333  0.54538154
   0.33333333  0.33333333  0.57105038
