  34  34   0   0
  0.2629040E+02  0.7260000E-09  0.5133596E-09  0.2398379E-08  0.5000000E-15
  1.000000000000000E-004
  CAR 
 unknown system                          
     11.80639384    -10.27268146  301      0.76272241      1.00000000
    -10.273  0.0000E+00  0.0000E+00  0.0000E+00  0.0000E+00
    -10.199  0.0000E+00  0.0000E+00  0.0000E+00  0.0000E+00
    -10.125  0.0000E+00  0.0000E+00  0.0000E+00  0.0000E+00
    -10.052  0.0000E+00  0.0000E+00  0.0000E+00  0.0000E+00
     -9.978  0.0000E+00  0.0000E+00  0.0000E+00  0.0000E+00
     -9.905 -0.5243E-31 -0.5243E-31 -0.3859E-32 -0.3859E-32
     -9.831 -0.1769E-28 -0.1769E-28 -0.1306E-29 -0.1306E-29
     -9.758 -0.4550E-26 -0.4550E-26 -0.3362E-27 -0.3362E-27
     -9.684 -0.8903E-24 -0.8903E-24 -0.6586E-25 -0.6586E-25
     -9.610 -0.1325E-21 -0.1325E-21 -0.9814E-23 -0.9814E-23
     -9.537 -0.1498E-19 -0.1498E-19 -0.1112E-20 -0.1112E-20
     -9.463 -0.1287E-17 -0.1287E-17 -0.9581E-19 -0.9581E-19
     -9.390 -0.8119E-16 -0.8119E-16 -0.6071E-17 -0.6071E-17
     -9.316 -0.4000E-14 -0.4000E-14 -0.3005E-15 -0.3005E-15
     -9.242 -0.1491E-12 -0.1491E-12 -0.1127E-13 -0.1127E-13
     -9.169 -0.4197E-11 -0.4197E-11 -0.3201E-12 -0.3201E-12
     -9.095 -0.8906E-10 -0.8906E-10 -0.6875E-11 -0.6875E-11
     -9.022 -0.1420E-08 -0.1420E-08 -0.1114E-09 -0.1114E-09
     -8.948 -0.1693E-07 -0.1693E-07 -0.1357E-08 -0.1357E-08
     -8.874 -0.1498E-06 -0.1498E-06 -0.1238E-07 -0.1238E-07
     -8.801 -0.9731E-06 -0.9731E-06 -0.8400E-07 -0.8400E-07
     -8.727 -0.4544E-05 -0.4544E-05 -0.4184E-06 -0.4184E-06
     -8.654 -0.1462E-04 -0.1462E-04 -0.1495E-05 -0.1495E-05
     -8.580 -0.2889E-04 -0.2889E-04 -0.3621E-05 -0.3621E-05
     -8.506 -0.1768E-04 -0.1768E-04 -0.4922E-05 -0.4922E-05
     -8.433  0.7991E-04  0.7991E-04  0.9588E-06  0.9588E-06
     -8.359  0.2830E-03  0.2830E-03  0.2179E-04  0.2179E-04
     -8.286  0.4763E-03  0.4763E-03  0.5684E-04  0.5684E-04
     -8.212  0.5046E-03  0.5046E-03  0.9398E-04  0.9398E-04
     -8.138  0.4287E-03  0.4287E-03  0.1255E-03  0.1255E-03
     -8.065  0.5154E-03  0.5154E-03  0.1635E-03  0.1635E-03
     -7.991  0.8317E-03  0.8317E-03  0.2247E-03  0.2247E-03
     -7.918  0.1058E-02  0.1058E-02  0.3025E-03  0.3025E-03
     -7.844  0.9373E-03  0.9373E-03  0.3715E-03  0.3715E-03
     -7.770  0.7033E-03  0.7033E-03  0.4233E-03  0.4233E-03
     -7.697  0.7220E-03  0.7220E-03  0.4764E-03  0.4764E-03
     -7.623  0.9042E-03  0.9042E-03  0.5429E-03  0.5429E-03
     -7.550  0.9255E-03  0.9255E-03  0.6111E-03  0.6111E-03
     -7.476  0.9320E-03  0.9320E-03  0.6796E-03  0.6796E-03
     -7.402  0.1423E-02  0.1423E-02  0.7843E-03  0.7843E-03
     -7.329  0.2291E-02  0.2291E-02  0.9530E-03  0.9530E-03
     -7.255  0.2683E-02  0.2683E-02  0.1150E-02  0.1150E-02
     -7.182  0.2221E-02  0.2221E-02  0.1314E-02  0.1314E-02
     -7.108  0.1657E-02  0.1657E-02  0.1436E-02  0.1436E-02
     -7.034  0.1730E-02  0.1730E-02  0.1563E-02  0.1563E-02
     -6.961  0.2059E-02  0.2059E-02  0.1715E-02  0.1715E-02
     -6.887  0.1859E-02  0.1859E-02  0.1852E-02  0.1852E-02
     -6.814  0.1187E-02  0.1187E-02  0.1939E-02  0.1939E-02
     -6.740  0.7194E-03  0.7194E-03  0.1992E-02  0.1992E-02
     -6.666  0.7224E-03  0.7224E-03  0.2045E-02  0.2045E-02
     -6.593  0.1038E-02  0.1038E-02  0.2121E-02  0.2121E-02
     -6.519  0.1795E-02  0.1795E-02  0.2253E-02  0.2253E-02
     -6.446  0.3130E-02  0.3130E-02  0.2484E-02  0.2484E-02
     -6.372  0.4286E-02  0.4286E-02  0.2799E-02  0.2799E-02
     -6.298  0.4156E-02  0.4156E-02  0.3105E-02  0.3105E-02
     -6.225  0.2845E-02  0.2845E-02  0.3314E-02  0.3314E-02
     -6.151  0.1552E-02  0.1552E-02  0.3429E-02  0.3429E-02
     -6.078  0.9865E-03  0.9865E-03  0.3501E-02  0.3501E-02
     -6.004  0.9228E-03  0.9228E-03  0.3569E-02  0.3569E-02
     -5.930  0.1042E-02  0.1042E-02  0.3646E-02  0.3646E-02
     -5.857  0.1395E-02  0.1395E-02  0.3749E-02  0.3749E-02
     -5.783  0.2387E-02  0.2387E-02  0.3924E-02  0.3924E-02
     -5.710  0.4557E-02  0.4557E-02  0.4260E-02  0.4260E-02
     -5.636  0.7605E-02  0.7605E-02  0.4819E-02  0.4819E-02
     -5.562  0.9788E-02  0.9788E-02  0.5540E-02  0.5540E-02
     -5.489  0.9357E-02  0.9357E-02  0.6228E-02  0.6228E-02
     -5.415  0.6525E-02  0.6525E-02  0.6709E-02  0.6709E-02
     -5.342  0.3281E-02  0.3281E-02  0.6950E-02  0.6950E-02
     -5.268  0.1585E-02  0.1585E-02  0.7067E-02  0.7067E-02
     -5.194  0.2215E-02  0.2215E-02  0.7230E-02  0.7230E-02
     -5.121  0.4727E-02  0.4727E-02  0.7578E-02  0.7578E-02
     -5.047  0.7638E-02  0.7638E-02  0.8140E-02  0.8140E-02
     -4.974  0.9132E-02  0.9132E-02  0.8812E-02  0.8812E-02
     -4.900  0.8450E-02  0.8450E-02  0.9434E-02  0.9434E-02
     -4.827  0.6243E-02  0.6243E-02  0.9893E-02  0.9893E-02
     -4.753  0.3554E-02  0.3554E-02  0.1015E-01  0.1015E-01
     -4.679  0.1239E-02  0.1239E-02  0.1025E-01  0.1025E-01
     -4.606  0.1683E-03  0.1683E-03  0.1026E-01  0.1026E-01
     -4.532  0.1064E-02  0.1064E-02  0.1034E-01  0.1034E-01
     -4.459  0.3964E-02  0.3964E-02  0.1063E-01  0.1063E-01
     -4.385  0.7873E-02  0.7873E-02  0.1121E-01  0.1121E-01
     -4.311  0.1105E-01  0.1105E-01  0.1202E-01  0.1202E-01
     -4.238  0.1218E-01  0.1218E-01  0.1292E-01  0.1292E-01
     -4.164  0.1179E-01  0.1179E-01  0.1379E-01  0.1379E-01
     -4.091  0.1198E-01  0.1198E-01  0.1467E-01  0.1467E-01
     -4.017  0.1425E-01  0.1425E-01  0.1572E-01  0.1572E-01
     -3.943  0.1767E-01  0.1767E-01  0.1702E-01  0.1702E-01
     -3.870  0.2013E-01  0.2013E-01  0.1850E-01  0.1850E-01
     -3.796  0.2121E-01  0.2121E-01  0.2006E-01  0.2006E-01
     -3.723  0.2245E-01  0.2245E-01  0.2171E-01  0.2171E-01
     -3.649  0.2437E-01  0.2437E-01  0.2350E-01  0.2350E-01
     -3.575  0.2582E-01  0.2582E-01  0.2541E-01  0.2541E-01
     -3.502  0.2704E-01  0.2704E-01  0.2740E-01  0.2740E-01
     -3.428  0.3035E-01  0.3035E-01  0.2963E-01  0.2963E-01
     -3.355  0.3644E-01  0.3644E-01  0.3231E-01  0.3231E-01
     -3.281  0.4198E-01  0.4198E-01  0.3540E-01  0.3540E-01
     -3.207  0.4324E-01  0.4324E-01  0.3858E-01  0.3858E-01
     -3.134  0.4079E-01  0.4079E-01  0.4158E-01  0.4158E-01
     -3.060  0.3793E-01  0.3793E-01  0.4438E-01  0.4438E-01
     -2.987  0.3606E-01  0.3606E-01  0.4703E-01  0.4703E-01
     -2.913  0.3469E-01  0.3469E-01  0.4958E-01  0.4958E-01
     -2.839  0.3484E-01  0.3484E-01  0.5215E-01  0.5215E-01
     -2.766  0.3876E-01  0.3876E-01  0.5500E-01  0.5500E-01
     -2.692  0.4608E-01  0.4608E-01  0.5839E-01  0.5839E-01
     -2.619  0.5316E-01  0.5316E-01  0.6230E-01  0.6230E-01
     -2.545  0.5680E-01  0.5680E-01  0.6648E-01  0.6648E-01
     -2.471  0.5727E-01  0.5727E-01  0.7070E-01  0.7070E-01
     -2.398  0.5756E-01  0.5756E-01  0.7494E-01  0.7494E-01
     -2.324  0.6060E-01  0.6060E-01  0.7939E-01  0.7939E-01
     -2.251  0.6689E-01  0.6689E-01  0.8432E-01  0.8432E-01
     -2.177  0.7433E-01  0.7433E-01  0.8979E-01  0.8979E-01
     -2.103  0.7951E-01  0.7951E-01  0.9564E-01  0.9564E-01
     -2.030  0.7971E-01  0.7971E-01  0.1015E+00  0.1015E+00
     -1.956  0.7498E-01  0.7498E-01  0.1070E+00  0.1070E+00
     -1.883  0.6808E-01  0.6808E-01  0.1120E+00  0.1120E+00
     -1.809  0.6204E-01  0.6204E-01  0.1166E+00  0.1166E+00
     -1.735  0.5834E-01  0.5834E-01  0.1209E+00  0.1209E+00
     -1.662  0.5741E-01  0.5741E-01  0.1251E+00  0.1251E+00
     -1.588  0.5973E-01  0.5973E-01  0.1295E+00  0.1295E+00
     -1.515  0.6501E-01  0.6501E-01  0.1343E+00  0.1343E+00
     -1.441  0.7062E-01  0.7062E-01  0.1395E+00  0.1395E+00
     -1.367  0.7362E-01  0.7362E-01  0.1449E+00  0.1449E+00
     -1.294  0.7469E-01  0.7469E-01  0.1504E+00  0.1504E+00
     -1.220  0.7660E-01  0.7660E-01  0.1560E+00  0.1560E+00
     -1.147  0.7937E-01  0.7937E-01  0.1619E+00  0.1619E+00
     -1.073  0.8143E-01  0.8143E-01  0.1679E+00  0.1679E+00
     -0.999  0.8470E-01  0.8470E-01  0.1741E+00  0.1741E+00
     -0.926  0.9263E-01  0.9263E-01  0.1809E+00  0.1809E+00
     -0.852  0.1026E+00  0.1026E+00  0.1885E+00  0.1885E+00
     -0.779  0.1052E+00  0.1052E+00  0.1962E+00  0.1962E+00
     -0.705  0.9266E-01  0.9266E-01  0.2030E+00  0.2030E+00
     -0.631  0.6716E-01  0.6716E-01  0.2080E+00  0.2080E+00
     -0.558  0.3940E-01  0.3940E-01  0.2109E+00  0.2109E+00
     -0.484  0.1952E-01  0.1952E-01  0.2123E+00  0.2123E+00
     -0.411  0.1029E-01  0.1029E-01  0.2131E+00  0.2131E+00
     -0.337  0.8209E-02  0.8209E-02  0.2137E+00  0.2137E+00
     -0.264  0.8347E-02  0.8347E-02  0.2143E+00  0.2143E+00
     -0.190  0.7515E-02  0.7515E-02  0.2149E+00  0.2149E+00
     -0.116  0.5060E-02  0.5060E-02  0.2152E+00  0.2152E+00
     -0.043  0.2190E-02  0.2190E-02  0.2154E+00  0.2154E+00
      0.031  0.5439E-03  0.5439E-03  0.2154E+00  0.2154E+00
      0.104  0.9684E-03  0.9684E-03  0.2155E+00  0.2155E+00
      0.178  0.3104E-02  0.3104E-02  0.2157E+00  0.2157E+00
      0.252  0.5755E-02  0.5755E-02  0.2162E+00  0.2162E+00
      0.325  0.7817E-02  0.7817E-02  0.2167E+00  0.2167E+00
      0.399  0.9163E-02  0.9163E-02  0.2174E+00  0.2174E+00
      0.472  0.1045E-01  0.1045E-01  0.2182E+00  0.2182E+00
      0.546  0.1179E-01  0.1179E-01  0.2190E+00  0.2190E+00
      0.620  0.1207E-01  0.1207E-01  0.2199E+00  0.2199E+00
      0.693  0.1046E-01  0.1046E-01  0.2207E+00  0.2207E+00
      0.767  0.7867E-02  0.7867E-02  0.2213E+00  0.2213E+00
      0.840  0.5955E-02  0.5955E-02  0.2217E+00  0.2217E+00
      0.914  0.5392E-02  0.5392E-02  0.2221E+00  0.2221E+00
      0.988  0.5826E-02  0.5826E-02  0.2225E+00  0.2225E+00
      1.061  0.6685E-02  0.6685E-02  0.2230E+00  0.2230E+00
      1.135  0.7230E-02  0.7230E-02  0.2236E+00  0.2236E+00
      1.208  0.6608E-02  0.6608E-02  0.2241E+00  0.2241E+00
      1.282  0.4727E-02  0.4727E-02  0.2244E+00  0.2244E+00
      1.356  0.2817E-02  0.2817E-02  0.2246E+00  0.2246E+00
      1.429  0.2520E-02  0.2520E-02  0.2248E+00  0.2248E+00
      1.503  0.4202E-02  0.4202E-02  0.2251E+00  0.2251E+00
      1.576  0.6283E-02  0.6283E-02  0.2256E+00  0.2256E+00
      1.650  0.6856E-02  0.6856E-02  0.2261E+00  0.2261E+00
      1.724  0.6041E-02  0.6041E-02  0.2265E+00  0.2265E+00
      1.797  0.5656E-02  0.5656E-02  0.2269E+00  0.2269E+00
      1.871  0.6492E-02  0.6492E-02  0.2274E+00  0.2274E+00
      1.944  0.7483E-02  0.7483E-02  0.2280E+00  0.2280E+00
      2.018  0.7705E-02  0.7705E-02  0.2285E+00  0.2285E+00
      2.092  0.7497E-02  0.7497E-02  0.2291E+00  0.2291E+00
      2.165  0.7341E-02  0.7341E-02  0.2296E+00  0.2296E+00
      2.239  0.7113E-02  0.7113E-02  0.2301E+00  0.2301E+00
      2.312  0.6718E-02  0.6718E-02  0.2306E+00  0.2306E+00
      2.386  0.6498E-02  0.6498E-02  0.2311E+00  0.2311E+00
      2.460  0.6712E-02  0.6712E-02  0.2316E+00  0.2316E+00
      2.533  0.6969E-02  0.6969E-02  0.2321E+00  0.2321E+00
      2.607  0.6526E-02  0.6526E-02  0.2326E+00  0.2326E+00
      2.680  0.5253E-02  0.5253E-02  0.2330E+00  0.2330E+00
      2.754  0.3928E-02  0.3928E-02  0.2333E+00  0.2333E+00
      2.828  0.3581E-02  0.3581E-02  0.2335E+00  0.2335E+00
      2.901  0.4787E-02  0.4787E-02  0.2339E+00  0.2339E+00
      2.975  0.7054E-02  0.7054E-02  0.2344E+00  0.2344E+00
      3.048  0.8610E-02  0.8610E-02  0.2350E+00  0.2350E+00
      3.122  0.7796E-02  0.7796E-02  0.2356E+00  0.2356E+00
      3.196  0.5124E-02  0.5124E-02  0.2360E+00  0.2360E+00
      3.269  0.2934E-02  0.2934E-02  0.2362E+00  0.2362E+00
      3.343  0.2790E-02  0.2790E-02  0.2364E+00  0.2364E+00
      3.416  0.4186E-02  0.4186E-02  0.2367E+00  0.2367E+00
      3.490  0.5690E-02  0.5690E-02  0.2371E+00  0.2371E+00
      3.564  0.6366E-02  0.6366E-02  0.2376E+00  0.2376E+00
      3.637  0.6191E-02  0.6191E-02  0.2381E+00  0.2381E+00
      3.711  0.5808E-02  0.5808E-02  0.2385E+00  0.2385E+00
      3.784  0.5807E-02  0.5807E-02  0.2389E+00  0.2389E+00
      3.858  0.6141E-02  0.6141E-02  0.2394E+00  0.2394E+00
      3.932  0.6390E-02  0.6390E-02  0.2398E+00  0.2398E+00
      4.005  0.6262E-02  0.6262E-02  0.2403E+00  0.2403E+00
      4.079  0.5725E-02  0.5725E-02  0.2407E+00  0.2407E+00
      4.152  0.5006E-02  0.5006E-02  0.2411E+00  0.2411E+00
      4.226  0.4471E-02  0.4471E-02  0.2414E+00  0.2414E+00
      4.300  0.4443E-02  0.4443E-02  0.2418E+00  0.2418E+00
      4.373  0.4881E-02  0.4881E-02  0.2421E+00  0.2421E+00
      4.447  0.5131E-02  0.5131E-02  0.2425E+00  0.2425E+00
      4.520  0.4642E-02  0.4642E-02  0.2428E+00  0.2428E+00
      4.594  0.4143E-02  0.4143E-02  0.2431E+00  0.2431E+00
      4.667  0.5054E-02  0.5054E-02  0.2435E+00  0.2435E+00
      4.741  0.7369E-02  0.7369E-02  0.2440E+00  0.2440E+00
      4.815  0.9170E-02  0.9170E-02  0.2447E+00  0.2447E+00
      4.888  0.8816E-02  0.8816E-02  0.2454E+00  0.2454E+00
      4.962  0.6806E-02  0.6806E-02  0.2459E+00  0.2459E+00
      5.035  0.4808E-02  0.4808E-02  0.2462E+00  0.2462E+00
      5.109  0.3829E-02  0.3829E-02  0.2465E+00  0.2465E+00
      5.183  0.4030E-02  0.4029E-02  0.2468E+00  0.2468E+00
      5.256  0.5194E-02  0.5194E-02  0.2472E+00  0.2472E+00
      5.330  0.6657E-02  0.6657E-02  0.2477E+00  0.2477E+00
      5.403  0.7642E-02  0.7642E-02  0.2482E+00  0.2482E+00
      5.477  0.8103E-02  0.8103E-02  0.2488E+00  0.2488E+00
      5.551  0.8592E-02  0.8592E-02  0.2495E+00  0.2495E+00
      5.624  0.9318E-02  0.9318E-02  0.2502E+00  0.2502E+00
      5.698  0.1001E-01  0.1001E-01  0.2509E+00  0.2509E+00
      5.771  0.1049E-01  0.1049E-01  0.2517E+00  0.2517E+00
      5.845  0.1083E-01  0.1083E-01  0.2525E+00  0.2525E+00
      5.919  0.1095E-01  0.1095E-01  0.2533E+00  0.2533E+00
      5.992  0.1047E-01  0.1047E-01  0.2540E+00  0.2540E+00
      6.066  0.9320E-02  0.9320E-02  0.2547E+00  0.2547E+00
      6.139  0.8260E-02  0.8260E-02  0.2553E+00  0.2553E+00
      6.213  0.8128E-02  0.8128E-02  0.2559E+00  0.2559E+00
      6.287  0.8738E-02  0.8738E-02  0.2566E+00  0.2566E+00
      6.360  0.9070E-02  0.9069E-02  0.2572E+00  0.2572E+00
      6.434  0.8570E-02  0.8570E-02  0.2579E+00  0.2579E+00
      6.507  0.7819E-02  0.7819E-02  0.2584E+00  0.2584E+00
      6.581  0.7761E-02  0.7761E-02  0.2590E+00  0.2590E+00
      6.655  0.8659E-02  0.8659E-02  0.2597E+00  0.2597E+00
      6.728  0.1001E-01  0.1001E-01  0.2604E+00  0.2604E+00
      6.802  0.1106E-01  0.1106E-01  0.2612E+00  0.2612E+00
      6.875  0.1100E-01  0.1100E-01  0.2620E+00  0.2620E+00
      6.949  0.9457E-02  0.9456E-02  0.2627E+00  0.2627E+00
      7.023  0.7188E-02  0.7188E-02  0.2632E+00  0.2632E+00
      7.096  0.5977E-02  0.5977E-02  0.2637E+00  0.2637E+00
      7.170  0.7054E-02  0.7054E-02  0.2642E+00  0.2642E+00
      7.243  0.9685E-02  0.9684E-02  0.2649E+00  0.2649E+00
      7.317  0.1183E-01  0.1183E-01  0.2658E+00  0.2658E+00
      7.391  0.1215E-01  0.1215E-01  0.2667E+00  0.2667E+00
      7.464  0.1076E-01  0.1076E-01  0.2675E+00  0.2675E+00
      7.538  0.8575E-02  0.8575E-02  0.2681E+00  0.2681E+00
      7.611  0.6846E-02  0.6846E-02  0.2686E+00  0.2686E+00
      7.685  0.6797E-02  0.6797E-02  0.2691E+00  0.2691E+00
      7.759  0.8693E-02  0.8693E-02  0.2697E+00  0.2697E+00
      7.832  0.1152E-01  0.1152E-01  0.2706E+00  0.2706E+00
      7.906  0.1386E-01  0.1386E-01  0.2716E+00  0.2716E+00
      7.979  0.1462E-01  0.1462E-01  0.2727E+00  0.2727E+00
      8.053  0.1350E-01  0.1350E-01  0.2737E+00  0.2737E+00
      8.127  0.1142E-01  0.1142E-01  0.2745E+00  0.2745E+00
      8.200  0.9727E-02  0.9727E-02  0.2752E+00  0.2752E+00
      8.274  0.8975E-02  0.8975E-02  0.2759E+00  0.2759E+00
      8.347  0.8707E-02  0.8707E-02  0.2765E+00  0.2765E+00
      8.421  0.8239E-02  0.8239E-02  0.2771E+00  0.2771E+00
      8.495  0.7502E-02  0.7502E-02  0.2777E+00  0.2777E+00
      8.568  0.7178E-02  0.7178E-02  0.2782E+00  0.2782E+00
      8.642  0.7866E-02  0.7866E-02  0.2788E+00  0.2788E+00
      8.715  0.9485E-02  0.9484E-02  0.2795E+00  0.2795E+00
      8.789  0.1171E-01  0.1171E-01  0.2804E+00  0.2804E+00
      8.863  0.1408E-01  0.1408E-01  0.2814E+00  0.2814E+00
      8.936  0.1543E-01  0.1543E-01  0.2825E+00  0.2825E+00
      9.010  0.1468E-01  0.1468E-01  0.2836E+00  0.2836E+00
      9.083  0.1213E-01  0.1213E-01  0.2845E+00  0.2845E+00
      9.157  0.9083E-02  0.9083E-02  0.2852E+00  0.2852E+00
      9.231  0.6836E-02  0.6836E-02  0.2857E+00  0.2857E+00
      9.304  0.6298E-02  0.6298E-02  0.2861E+00  0.2861E+00
      9.378  0.7499E-02  0.7500E-02  0.2867E+00  0.2867E+00
      9.451  0.9201E-02  0.9201E-02  0.2874E+00  0.2874E+00
      9.525  0.9861E-02  0.9861E-02  0.2881E+00  0.2881E+00
      9.598  0.8876E-02  0.8876E-02  0.2888E+00  0.2888E+00
      9.672  0.6775E-02  0.6775E-02  0.2893E+00  0.2893E+00
      9.746  0.4610E-02  0.4610E-02  0.2896E+00  0.2896E+00
      9.819  0.3021E-02  0.3021E-02  0.2898E+00  0.2898E+00
      9.893  0.1862E-02  0.1862E-02  0.2899E+00  0.2899E+00
      9.966  0.8695E-03  0.8695E-03  0.2900E+00  0.2900E+00
     10.040  0.1593E-03  0.1593E-03  0.2900E+00  0.2900E+00
     10.114 -0.1281E-03 -0.1281E-03  0.2900E+00  0.2900E+00
     10.187 -0.1296E-03 -0.1296E-03  0.2900E+00  0.2900E+00
     10.261 -0.6099E-04 -0.6099E-04  0.2900E+00  0.2900E+00
     10.334 -0.1850E-04 -0.1850E-04  0.2900E+00  0.2900E+00
     10.408 -0.3924E-05 -0.3924E-05  0.2900E+00  0.2900E+00
     10.482 -0.6016E-06 -0.6016E-06  0.2900E+00  0.2900E+00
     10.555 -0.6784E-07 -0.6784E-07  0.2900E+00  0.2900E+00
     10.629 -0.5685E-08 -0.5685E-08  0.2900E+00  0.2900E+00
     10.702 -0.3564E-09 -0.3564E-09  0.2900E+00  0.2900E+00
     10.776 -0.1679E-10 -0.1679E-10  0.2900E+00  0.2900E+00
     10.850 -0.5963E-12 -0.5963E-12  0.2900E+00  0.2900E+00
     10.923 -0.1600E-13 -0.1600E-13  0.2900E+00  0.2900E+00
     10.997 -0.3252E-15 -0.3252E-15  0.2900E+00  0.2900E+00
     11.070 -0.5028E-17 -0.5028E-17  0.2900E+00  0.2900E+00
     11.144  0.0000E+00  0.0000E+00  0.2900E+00  0.2900E+00
     11.218  0.0000E+00  0.0000E+00  0.2900E+00  0.2900E+00
     11.291  0.0000E+00  0.0000E+00  0.2900E+00  0.2900E+00
     11.365  0.0000E+00  0.0000E+00  0.2900E+00  0.2900E+00
     11.438  0.0000E+00  0.0000E+00  0.2900E+00  0.2900E+00
     11.512  0.0000E+00  0.0000E+00  0.2900E+00  0.2900E+00
     11.586  0.0000E+00  0.0000E+00  0.2900E+00  0.2900E+00
     11.659  0.0000E+00  0.0000E+00  0.2900E+00  0.2900E+00
     11.733  0.0000E+00  0.0000E+00  0.2900E+00  0.2900E+00
     11.806  0.0000E+00  0.0000E+00  0.2900E+00  0.2900E+00
