<?xml version="1.0" encoding="ISO-8859-1"?>
<modeling>
 <generator>
  <i name="program" type="string">vasp </i>
  <i name="version" type="string">6.3.2  </i>
  <i name="subversion" type="string">27Jun22 (build Aug 17 2022 15:43:34) complex                          parallel </i>
  <i name="platform" type="string">tv2STDVTST </i>
  <i name="date" type="string">2025 02 17 </i>
  <i name="time" type="string">16:02:56 </i>
 </generator>
 <incar>
  <i type="int" name="ISTART">     0</i>
  <i type="string" name="PREC">Normal</i>
  <i type="int" name="ISPIN">     2</i>
  <i type="int" name="ICHARG">     2</i>
  <i type="int" name="IBRION">     2</i>
  <i name="EDIFF">      0.00020000</i>
  <i name="EDIFFG">     -0.03000000</i>
  <i type="int" name="NSW">   800</i>
  <i type="int" name="ISIF">     2</i>
  <i type="int" name="ISYM">     1</i>
  <i name="ENCUT">    400.00000000</i>
  <i name="POTIM">      0.50000000</i>
  <i type="logical" name="LREAL"> F  </i>
  <i type="int" name="ISMEAR">     1</i>
  <i name="SIGMA">      0.20000000</i>
  <i type="logical" name="LWAVE"> F  </i>
  <i type="logical" name="LCHARG"> F  </i>
  <i type="string" name="GGA">PE</i>
  <i type="int" name="IVDW">    11</i>
 </incar>
 <primitive_cell>
  <structure name="primitive_cell" >
   <crystal>
    <varray name="basis" >
     <v>       7.26000023       0.00000000       0.00000000 </v>
     <v>       0.00000000       5.13359547       0.00000000 </v>
     <v>       0.00000000       0.00000000      23.98379135 </v>
    </varray>
    <i name="volume">    893.87360752 </i>
    <varray name="rec_basis" >
     <v>       0.13774104       0.00000000       0.00000000 </v>
     <v>       0.00000000       0.19479525       0.00000000 </v>
     <v>       0.00000000       0.00000000       0.04169483 </v>
    </varray>
   </crystal>
   <varray name="positions" >
    <v>       0.00000000       0.00000000       0.00000000 </v>
    <v>       0.00000000       0.50000000       0.00000000 </v>
    <v>       0.50000000       0.00000000       0.00000000 </v>
    <v>       0.50000000       0.50000000       0.00000000 </v>
    <v>       0.25000000       0.25000000       0.05351109 </v>
    <v>       0.25000000       0.75000000       0.05351109 </v>
    <v>       0.75000000       0.25000000       0.05351109 </v>
    <v>       0.75000000       0.75000000       0.05351109 </v>
    <v>       0.00000000       0.00000000       0.10541371 </v>
    <v>       0.00000000       0.50000000       0.10541371 </v>
    <v>       0.50000000       0.00000000       0.10541371 </v>
    <v>       0.50000000       0.50000000       0.10541371 </v>
    <v>       0.25000000       0.25000000       0.15715010 </v>
    <v>       0.25000000       0.75000000       0.15715010 </v>
    <v>       0.75000000       0.25000000       0.15715010 </v>
    <v>       0.75000000       0.75000000       0.15715010 </v>
    <v>       0.00000000       0.00000000       0.20866257 </v>
    <v>       0.00000000       0.50000000       0.20866257 </v>
    <v>       0.50000000       0.00000000       0.20866257 </v>
    <v>       0.50000000       0.50000000       0.20866257 </v>
    <v>       0.25000000       0.25000000       0.25947965 </v>
    <v>       0.25000000       0.75000000       0.25947965 </v>
    <v>       0.75000000       0.25000000       0.25947965 </v>
    <v>       0.75000000       0.75000000       0.25947965 </v>
    <v>       0.00000000       0.00000000       0.31415415 </v>
    <v>       0.00000000       0.50000000       0.31415415 </v>
    <v>       0.50000000       0.00000000       0.31415415 </v>
    <v>       0.50000000       0.50000000       0.31415415 </v>
    <v>       0.25000000       0.25000000       0.36181799 </v>
    <v>       0.25000000       0.75000000       0.36181799 </v>
    <v>       0.75000000       0.25000000       0.36181799 </v>
    <v>       0.75000000       0.75000000       0.36181799 </v>
    <v>       0.75000000       0.50000000       0.42690792 </v>
    <v>       0.75000000       0.50000000       0.45801226 </v>
   </varray>
  </structure>
  <varray name="primitive_index" >
   <v type="int" >        1 </v>
   <v type="int" >        2 </v>
   <v type="int" >        3 </v>
   <v type="int" >        4 </v>
   <v type="int" >        5 </v>
   <v type="int" >        6 </v>
   <v type="int" >        7 </v>
   <v type="int" >        8 </v>
   <v type="int" >        9 </v>
   <v type="int" >       10 </v>
   <v type="int" >       11 </v>
   <v type="int" >       12 </v>
   <v type="int" >       13 </v>
   <v type="int" >       14 </v>
   <v type="int" >       15 </v>
   <v type="int" >       16 </v>
   <v type="int" >       17 </v>
   <v type="int" >       18 </v>
   <v type="int" >       19 </v>
   <v type="int" >       20 </v>
   <v type="int" >       21 </v>
   <v type="int" >       22 </v>
   <v type="int" >       23 </v>
   <v type="int" >       24 </v>
   <v type="int" >       25 </v>
   <v type="int" >       26 </v>
   <v type="int" >       27 </v>
   <v type="int" >       28 </v>
   <v type="int" >       29 </v>
   <v type="int" >       30 </v>
   <v type="int" >       31 </v>
   <v type="int" >       32 </v>
   <v type="int" >       33 </v>
   <v type="int" >       34 </v>
  </varray>
 </primitive_cell>
 <kpoints>
  <generation param="Monkhorst-Pack">
   <v type="int" name="divisions">       3        3        1 </v>
   <v name="usershift">      0.00000000       0.00000000       0.00000000 </v>
   <v name="genvec1">      0.33333333       0.00000000       0.00000000 </v>
   <v name="genvec2">      0.00000000       0.33333333       0.00000000 </v>
   <v name="genvec3">      0.00000000       0.00000000       1.00000000 </v>
   <v name="shift">      0.00000000       0.00000000       0.00000000 </v>
  </generation>
  <varray name="kpointlist" >
   <v>       0.00000000       0.00000000       0.00000000 </v>
   <v>       0.33333333       0.00000000       0.00000000 </v>
   <v>       0.00000000       0.33333333       0.00000000 </v>
   <v>       0.33333333       0.33333333       0.00000000 </v>
  </varray>
  <varray name="weights" >
   <v>       0.11111111 </v>
   <v>       0.22222222 </v>
   <v>       0.22222222 </v>
   <v>       0.44444444 </v>
  </varray>
 </kpoints>
 <parameters>
  <separator name="general" >
   <i type="string" name="SYSTEM">unknown system</i>
   <i type="logical" name="LCOMPAT"> F  </i>
  </separator>
  <separator name="electronic" >
   <i type="string" name="PREC">normal</i>
   <i name="ENMAX">    400.00000000</i>
   <i name="ENAUG">    586.98000000</i>
   <i name="EDIFF">      0.00020000</i>
   <i type="int" name="IALGO">    38</i>
   <i type="int" name="IWAVPR">    11</i>
   <i type="int" name="NBANDS">   232</i>
   <i type="int" name="NBANDSLOW">    -1</i>
   <i type="int" name="NBANDSHIGH">    -1</i>
   <i name="NELECT">    354.00000000</i>
   <i type="int" name="TURBO">     0</i>
   <i type="int" name="IRESTART">     0</i>
   <i type="int" name="NREBOOT">     0</i>
   <i type="int" name="NMIN">     0</i>
   <i name="EREF">      0.00000000</i>
   <separator name="electronic smearing" >
    <i type="int" name="ISMEAR">     1</i>
    <i name="SIGMA">      0.20000000</i>
    <i name="KSPACING">      0.50000000</i>
    <i type="logical" name="KGAMMA"> T  </i>
    <i type="logical" name="KBLOWUP"> T  </i>
   </separator>
   <separator name="electronic projectors" >
    <i type="logical" name="LREAL"> F  </i>
    <v name="ROPT">      0.00000000      0.00000000</v>
    <i type="int" name="LMAXPAW">  -100</i>
    <i type="int" name="LMAXMIX">     2</i>
    <i type="logical" name="NLSPLINE"> F  </i>
   </separator>
   <separator name="electronic startup" >
    <i type="int" name="ISTART">     0</i>
    <i type="int" name="ICHARG">     2</i>
    <i type="int" name="INIWAV">     1</i>
   </separator>
   <separator name="electronic spin" >
    <i type="int" name="ISPIN">     2</i>
    <i type="logical" name="LNONCOLLINEAR"> F  </i>
    <v name="MAGMOM">      1.00000000      1.00000000      1.00000000      1.00000000      1.00000000      1.00000000      1.00000000      1.00000000      1.00000000      1.00000000      1.00000000      1.00000000      1.00000000      1.00000000      1.00000000      1.00000000      1.00000000      1.00000000      1.00000000      1.00000000
      1.00000000      1.00000000      1.00000000      1.00000000      1.00000000      1.00000000      1.00000000      1.00000000      1.00000000      1.00000000      1.00000000      1.00000000      1.00000000      1.00000000</v>
    <i name="NUPDOWN">     -1.00000000</i>
    <i type="logical" name="LSORBIT"> F  </i>
    <v name="SAXIS">      0.00000000      0.00000000      1.00000000</v>
    <i type="logical" name="LSPIRAL"> F  </i>
    <v name="QSPIRAL">      0.00000000      0.00000000      0.00000000</v>
    <i type="logical" name="LZEROZ"> F  </i>
   </separator>
   <separator name="electronic exchange-correlation" >
    <i type="logical" name="LASPH"> F  </i>
    <i type="logical" name="LMETAGGA"> F  </i>
   </separator>
   <separator name="electronic convergence" >
    <i type="int" name="NELM">    60</i>
    <i type="int" name="NELMDL">    -5</i>
    <i type="int" name="NELMIN">     2</i>
    <i name="ENINI">    400.00000000</i>
    <separator name="electronic convergence detail" >
     <i type="logical" name="LDIAG"> T  </i>
     <i type="logical" name="LSUBROT"> F  </i>
     <i name="WEIMIN">      0.00100000</i>
     <i name="EBREAK">      0.00000022</i>
     <i name="DEPER">      0.30000000</i>
     <i type="int" name="NRMM">     4</i>
     <i name="TIME">      0.40000000</i>
    </separator>
   </separator>
   <separator name="electronic mixer" >
    <i name="AMIX">      0.40000000</i>
    <i name="BMIX">      1.00000000</i>
    <i name="AMIN">      0.10000000</i>
    <i name="AMIX_MAG">      1.60000000</i>
    <i name="BMIX_MAG">      1.00000000</i>
    <separator name="electronic mixer details" >
     <i type="int" name="IMIX">     4</i>
     <i type="logical" name="MIXFIRST"> F  </i>
     <i type="int" name="MAXMIX">   -45</i>
     <i name="WC">    100.00000000</i>
     <i type="int" name="INIMIX">     1</i>
     <i type="int" name="MIXPRE">     1</i>
     <i type="int" name="MREMOVE">     5</i>
    </separator>
   </separator>
   <separator name="electronic dipolcorrection" >
    <i type="logical" name="LDIPOL"> F  </i>
    <i type="logical" name="LMONO"> F  </i>
    <i type="int" name="IDIPOL">     0</i>
    <i name="EPSILON">      1.00000000</i>
    <v name="DIPOL">   -100.00000000   -100.00000000   -100.00000000</v>
    <i name="EFIELD">      0.00000000</i>
   </separator>
  </separator>
  <separator name="grids" >
   <i type="int" name="NGX">    36</i>
   <i type="int" name="NGY">    28</i>
   <i type="int" name="NGZ">   120</i>
   <i type="int" name="NGXF">    72</i>
   <i type="int" name="NGYF">    56</i>
   <i type="int" name="NGZF">   240</i>
   <i type="logical" name="ADDGRID"> F  </i>
  </separator>
  <separator name="ionic" >
   <i type="int" name="NSW">   800</i>
   <i type="int" name="IBRION">     2</i>
   <i type="int" name="MDALGO">     0</i>
   <i type="int" name="ISIF">     2</i>
   <i name="PSTRESS">      0.00000000</i>
   <i name="EDIFFG">     -0.03000000</i>
   <i type="int" name="NFREE">     1</i>
   <i name="POTIM">      0.50000000</i>
   <i name="SMASS">     -3.00000000</i>
   <i name="SCALEE">      1.00000000</i>
  </separator>
  <separator name="ionic md" >
   <i name="TEBEG">      0.00010000</i>
   <i name="TEEND">      0.00010000</i>
   <i type="int" name="NBLOCK">     1</i>
   <i type="int" name="KBLOCK">   800</i>
   <i type="int" name="NPACO">   256</i>
   <i name="APACO">     10.00000000</i>
  </separator>
  <separator name="symmetry" >
   <i type="int" name="ISYM">     1</i>
   <i name="SYMPREC">      0.00001000</i>
  </separator>
  <separator name="dos" >
   <i type="int" name="LORBIT">     0</i>
   <v name="RWIGS">     -1.00000000     -1.00000000</v>
   <i type="int" name="NEDOS">   301</i>
   <i name="EMIN">     10.00000000</i>
   <i name="EMAX">    -10.00000000</i>
   <i name="EFERMI">      0.00000000</i>
  </separator>
  <separator name="writing" >
   <i type="int" name="NWRITE">     2</i>
   <i type="logical" name="LWAVE"> F  </i>
   <i type="logical" name="LDOWNSAMPLE"> F  </i>
   <i type="logical" name="LCHARG"> F  </i>
   <i type="logical" name="LPARD"> F  </i>
   <i type="logical" name="LVTOT"> F  </i>
   <i type="logical" name="LVHAR"> F  </i>
   <i type="logical" name="LELF"> F  </i>
   <i type="logical" name="LOPTICS"> F  </i>
   <v name="STM">      0.00000000      0.00000000      0.00000000      0.00000000      0.00000000      0.00000000      0.00000000</v>
  </separator>
  <separator name="performance" >
   <i type="int" name="NPAR">     4</i>
   <i type="int" name="NSIM">     4</i>
   <i type="int" name="NBLK">    -1</i>
   <i type="logical" name="LPLANE"> T  </i>
   <i type="logical" name="LSCALAPACK"> T  </i>
   <i type="logical" name="LSCAAWARE"> F  </i>
   <i type="logical" name="LSCALU"> F  </i>
   <i type="logical" name="LASYNC"> F  </i>
   <i type="logical" name="LORBITALREAL"> F  </i>
  </separator>
  <separator name="miscellaneous" >
   <i type="int" name="IDIOT">     3</i>
   <i type="int" name="PHON_NSTRUCT">    -1</i>
   <i type="logical" name="LMUSIC"> F  </i>
   <v name="POMASS">     63.54600000      1.00000000</v>
   <v name="DARWINR">      0.00000000      0.00000000</v>
   <v name="DARWINV">      1.00000000      1.00000000</v>
   <i type="logical" name="LCORR"> T  </i>
  </separator>
  <i type="logical" name="GGA_COMPAT"> T  </i>
  <i type="logical" name="LBERRY"> F  </i>
  <i type="int" name="ICORELEVEL">     0</i>
  <i type="logical" name="LDAU"> F  </i>
  <i type="int" name="I_CONSTRAINED_M">     0</i>
  <separator name="electronic exchange-correlation" >
   <i type="string" name="GGA">PE</i>
   <i type="int" name="VOSKOWN">     0</i>
   <i type="logical" name="LHFCALC"> F  </i>
   <i type="string" name="PRECFOCK"></i>
   <i type="logical" name="LSYMGRAD"> F  </i>
   <i type="logical" name="LHFONE"> F  </i>
   <i type="logical" name="LRHFCALC"> F  </i>
   <i type="logical" name="LTHOMAS"> F  </i>
   <i type="logical" name="LMODELHF"> F  </i>
   <i type="logical" name="LFOCKACE"> F  </i>
   <i name="ENCUT4O">     -1.00000000</i>
   <i type="int" name="EXXOEP">     0</i>
   <i type="int" name="FOURORBIT">     0</i>
   <i name="AEXX">      0.00000000</i>
   <i name="HFALPHA">      0.00000000</i>
   <i name="MCALPHA">      0.00000000</i>
   <i name="ALDAX">      1.00000000</i>
   <i name="AGGAX">      1.00000000</i>
   <i name="ALDAC">      1.00000000</i>
   <i name="AGGAC">      1.00000000</i>
   <i type="int" name="NKREDX">     1</i>
   <i type="int" name="NKREDY">     1</i>
   <i type="int" name="NKREDZ">     1</i>
   <i type="logical" name="SHIFTRED"> F  </i>
   <i type="logical" name="ODDONLY"> F  </i>
   <i type="logical" name="EVENONLY"> F  </i>
   <i type="int" name="LMAXFOCK">     0</i>
   <i type="int" name="NMAXFOCKAE">     0</i>
   <i type="logical" name="LFOCKAEDFT"> F  </i>
   <i name="HFSCREEN">      0.00000000</i>
   <i name="HFSCREENC">      0.00000000</i>
   <i type="int" name="NBANDSGWLOW">     0</i>
  </separator>
  <separator name="vdW DFT" >
   <i type="logical" name="LUSE_VDW"> F  </i>
   <i name="Zab_VDW">     -0.84910000</i>
   <i name="PARAM1">      0.12340000</i>
   <i name="PARAM2">      1.00000000</i>
   <i name="PARAM3">      0.00000000</i>
  </separator>
  <separator name="model GW" >
   <i type="int" name="MODEL_GW">     0</i>
   <i name="MODEL_EPS0">     15.77424013</i>
   <i name="MODEL_ALPHA">      1.00000000</i>
  </separator>
  <separator name="linear response parameters" >
   <i type="logical" name="LEPSILON"> F  </i>
   <i type="logical" name="LRPA"> F  </i>
   <i type="logical" name="LNABLA"> F  </i>
   <i type="logical" name="LVEL"> F  </i>
   <i name="CSHIFT">      0.10000000</i>
   <i name="OMEGAMAX">     -1.00000000</i>
   <i name="DEG_THRESHOLD">      0.00200000</i>
   <i name="RTIME">     -0.10000000</i>
   <i name="WPLASMAI">      0.00000000</i>
   <v name="DFIELD">      0.00000000      0.00000000      0.00000000</v>
   <v name="WPLASMA">      0.00000000      0.00000000      0.00000000      0.00000000      0.00000000      0.00000000      0.00000000      0.00000000      0.00000000</v>
  </separator>
  <separator name="orbital magnetization" >
   <i type="logical" name="NUCIND"> F  </i>
   <v name="MAGPOS">      0.00000000      0.00000000      0.00000000</v>
   <i type="logical" name="LNICSALL"> T  </i>
   <i type="logical" name="ORBITALMAG"> F  </i>
   <i type="logical" name="LMAGBLOCH"> F  </i>
   <i type="logical" name="LCHIMAG"> F  </i>
   <i type="logical" name="LGAUGE"> T  </i>
   <i type="int" name="MAGATOM">     0</i>
   <v name="MAGDIPOL">      0.00000000      0.00000000      0.00000000</v>
   <v name="AVECCONST">      0.00000000      0.00000000      0.00000000</v>
  </separator>
  <separator name="response functions" >
   <i type="logical" name="LFINITE_TEMPERATURE"> F  </i>
   <i type="logical" name="LADDER"> F  </i>
   <i type="logical" name="LRPAFORCE"> F  </i>
   <i type="logical" name="LFXC"> F  </i>
   <i type="logical" name="LHARTREE"> T  </i>
   <i type="int" name="IBSE">     0</i>
   <v type="int" name="KPOINT">    -1     0     0     0</v>
   <i type="logical" name="LTCTC"> F  </i>
   <i type="logical" name="LTCTE"> F  </i>
   <i type="logical" name="LTETE"> F  </i>
   <i type="logical" name="LTRIPLET"> F  </i>
   <i type="logical" name="LFXCEPS"> F  </i>
   <i type="logical" name="LFXHEG"> F  </i>
   <i type="int" name="NATURALO">     2</i>
   <i type="logical" name="LHOLEGF"> F  </i>
   <i type="logical" name="L2ORDER"> F  </i>
   <i type="logical" name="LDMP1"> F  </i>
   <i type="logical" name="LMP2LT"> F  </i>
   <i type="logical" name="LSMP2LT"> F  </i>
   <i type="logical" name="LGWLF"> F  </i>
   <i name="ENCUTGW">     -2.00000000</i>
   <i name="ENCUTGWSOFT">     -2.00000000</i>
   <i name="ENCUTLF">     -1.00000000</i>
   <i type="logical" name="LESF_SPLINES"> F  </i>
   <i type="int" name="LMAXMP2">    -1</i>
   <i name="SCISSOR">      0.00000000</i>
   <i type="int" name="NOMEGA">     0</i>
   <i type="int" name="NOMEGAR">     0</i>
   <i type="int" name="NBANDSGW">    -1</i>
   <i type="int" name="NBANDSO">    -1</i>
   <i type="int" name="NBANDSV">    -1</i>
   <i type="int" name="NELMGW">     1</i>
   <i type="int" name="NELMHF">     1</i>
   <i type="int" name="DIM">     3</i>
   <i type="int" name="IESPILON">     4</i>
   <i type="int" name="ANTIRES">     0</i>
   <i name="OMEGAMAX">    -30.00000000</i>
   <i name="OMEGAMIN">    -30.00000000</i>
   <i name="OMEGATL">   -200.00000000</i>
   <i type="int" name="OMEGAGRID">     0</i>
   <i name="CSHIFT">     -0.10000000</i>
   <i type="logical" name="LSELFENERGY"> F  </i>
   <i type="logical" name="LSPECTRAL"> F  </i>
   <i type="logical" name="LSPECTRALGW"> F  </i>
   <i type="logical" name="LSINGLES"> F  </i>
   <i type="logical" name="LFERMIGW"> F  </i>
   <i type="logical" name="ODDONLYGW"> F  </i>
   <i type="logical" name="EVENONLYGW"> F  </i>
   <i type="int" name="NKREDLFX">     1</i>
   <i type="int" name="NKREDLFY">     1</i>
   <i type="int" name="NKREDLFZ">     1</i>
   <i type="int" name="MAXMEM">  2800</i>
   <i type="int" name="TELESCOPE">     0</i>
   <i type="int" name="NTAUPAR">    -1</i>
   <i type="int" name="NOMEGAPAR">    -1</i>
   <i name="DAMP_NEWTON">      0.80000001</i>
   <i name="LAMBDA">      1.00000000</i>
  </separator>
  <separator name="External order field" >
   <i name="OFIELD_KAPPA">      0.00000000</i>
   <v name="OFIELD_K">      0.00000000      0.00000000      0.00000000</v>
   <i name="OFIELD_Q6_NEAR">      0.00000000</i>
   <i name="OFIELD_Q6_FAR">      0.00000000</i>
   <i name="OFIELD_A">      0.00000000</i>
  </separator>
  <separator name="optional k-points parameters" >
   <i type="int" name="KPOINTS_OPT_MODE">     1</i>
   <i type="logical" name="LKPOINTS_OPT"> F  </i>
  </separator>
 </parameters>
 <atominfo>
  <atoms>      34 </atoms>
  <types>       2 </types>
  <array name="atoms" >
   <dimension dim="1">ion</dimension>
   <field type="string">element</field>
   <field type="int">atomtype</field>
   <set>
    <rc><c>Cu</c><c>   1</c></rc>
    <rc><c>Cu</c><c>   1</c></rc>
    <rc><c>Cu</c><c>   1</c></rc>
    <rc><c>Cu</c><c>   1</c></rc>
    <rc><c>Cu</c><c>   1</c></rc>
    <rc><c>Cu</c><c>   1</c></rc>
    <rc><c>Cu</c><c>   1</c></rc>
    <rc><c>Cu</c><c>   1</c></rc>
    <rc><c>Cu</c><c>   1</c></rc>
    <rc><c>Cu</c><c>   1</c></rc>
    <rc><c>Cu</c><c>   1</c></rc>
    <rc><c>Cu</c><c>   1</c></rc>
    <rc><c>Cu</c><c>   1</c></rc>
    <rc><c>Cu</c><c>   1</c></rc>
    <rc><c>Cu</c><c>   1</c></rc>
    <rc><c>Cu</c><c>   1</c></rc>
    <rc><c>Cu</c><c>   1</c></rc>
    <rc><c>Cu</c><c>   1</c></rc>
    <rc><c>Cu</c><c>   1</c></rc>
    <rc><c>Cu</c><c>   1</c></rc>
    <rc><c>Cu</c><c>   1</c></rc>
    <rc><c>Cu</c><c>   1</c></rc>
    <rc><c>Cu</c><c>   1</c></rc>
    <rc><c>Cu</c><c>   1</c></rc>
    <rc><c>Cu</c><c>   1</c></rc>
    <rc><c>Cu</c><c>   1</c></rc>
    <rc><c>Cu</c><c>   1</c></rc>
    <rc><c>Cu</c><c>   1</c></rc>
    <rc><c>Cu</c><c>   1</c></rc>
    <rc><c>Cu</c><c>   1</c></rc>
    <rc><c>Cu</c><c>   1</c></rc>
    <rc><c>Cu</c><c>   1</c></rc>
    <rc><c>H </c><c>   2</c></rc>
    <rc><c>H </c><c>   2</c></rc>
   </set>
  </array>
  <array name="atomtypes" >
   <dimension dim="1">type</dimension>
   <field type="int">atomspertype</field>
   <field type="string">element</field>
   <field>mass</field>
   <field>valence</field>
   <field type="string">pseudopotential</field>
   <set>
    <rc><c>  32</c><c>Cu</c><c>     63.54600000</c><c>     11.00000000</c><c>  PAW_PBE Cu 22Jun2005                  </c></rc>
    <rc><c>   2</c><c>H </c><c>      1.00000000</c><c>      1.00000000</c><c>  PAW_PBE H 15Jun2001                   </c></rc>
   </set>
  </array>
 </atominfo>
 <structure name="initialpos" >
  <crystal>
   <varray name="basis" >
    <v>       7.26000023       0.00000000       0.00000000 </v>
    <v>       0.00000000       5.13359547       0.00000000 </v>
    <v>       0.00000000       0.00000000      23.98379135 </v>
   </varray>
   <i name="volume">    893.87360752 </i>
   <varray name="rec_basis" >
    <v>       0.13774104       0.00000000       0.00000000 </v>
    <v>       0.00000000       0.19479525       0.00000000 </v>
    <v>       0.00000000       0.00000000       0.04169483 </v>
   </varray>
  </crystal>
  <varray name="positions" >
   <v>       0.00000000       0.00000000       0.00000000 </v>
   <v>       0.00000000       0.50000000       0.00000000 </v>
   <v>       0.50000000       0.00000000       0.00000000 </v>
   <v>       0.50000000       0.50000000       0.00000000 </v>
   <v>       0.25000000       0.25000000       0.05351109 </v>
   <v>       0.25000000       0.75000000       0.05351109 </v>
   <v>       0.75000000       0.25000000       0.05351109 </v>
   <v>       0.75000000       0.75000000       0.05351109 </v>
   <v>       0.00000000       0.00000000       0.10541371 </v>
   <v>       0.00000000       0.50000000       0.10541371 </v>
   <v>       0.50000000       0.00000000       0.10541371 </v>
   <v>       0.50000000       0.50000000       0.10541371 </v>
   <v>       0.25000000       0.25000000       0.15715010 </v>
   <v>       0.25000000       0.75000000       0.15715010 </v>
   <v>       0.75000000       0.25000000       0.15715010 </v>
   <v>       0.75000000       0.75000000       0.15715010 </v>
   <v>       0.00000000       0.00000000       0.20866257 </v>
   <v>       0.00000000       0.50000000       0.20866257 </v>
   <v>       0.50000000       0.00000000       0.20866257 </v>
   <v>       0.50000000       0.50000000       0.20866257 </v>
   <v>       0.25000000       0.25000000       0.25947965 </v>
   <v>       0.25000000       0.75000000       0.25947965 </v>
   <v>       0.75000000       0.25000000       0.25947965 </v>
   <v>       0.75000000       0.75000000       0.25947965 </v>
   <v>       0.00000000       0.00000000       0.31415415 </v>
   <v>       0.00000000       0.50000000       0.31415415 </v>
   <v>       0.50000000       0.00000000       0.31415415 </v>
   <v>       0.50000000       0.50000000       0.31415415 </v>
   <v>       0.25000000       0.25000000       0.36181799 </v>
   <v>       0.25000000       0.75000000       0.36181799 </v>
   <v>       0.75000000       0.25000000       0.36181799 </v>
   <v>       0.75000000       0.75000000       0.36181799 </v>
   <v>       0.75000000       0.50000000       0.42690792 </v>
   <v>       0.75000000       0.50000000       0.45801226 </v>
  </varray>
  <varray name="selective"  type="logical" >
   <v type="logical" >  F  F  F </v>
   <v type="logical" >  F  F  F </v>
   <v type="logical" >  F  F  F </v>
   <v type="logical" >  F  F  F </v>
   <v type="logical" >  F  F  F </v>
   <v type="logical" >  F  F  F </v>
   <v type="logical" >  F  F  F </v>
   <v type="logical" >  F  F  F </v>
   <v type="logical" >  F  F  F </v>
   <v type="logical" >  F  F  F </v>
   <v type="logical" >  F  F  F </v>
   <v type="logical" >  F  F  F </v>
   <v type="logical" >  T  T  T </v>
   <v type="logical" >  T  T  T </v>
   <v type="logical" >  T  T  T </v>
   <v type="logical" >  T  T  T </v>
   <v type="logical" >  T  T  T </v>
   <v type="logical" >  T  T  T </v>
   <v type="logical" >  T  T  T </v>
   <v type="logical" >  T  T  T </v>
   <v type="logical" >  T  T  T </v>
   <v type="logical" >  T  T  T </v>
   <v type="logical" >  T  T  T </v>
   <v type="logical" >  T  T  T </v>
   <v type="logical" >  T  T  T </v>
   <v type="logical" >  T  T  T </v>
   <v type="logical" >  T  T  T </v>
   <v type="logical" >  T  T  T </v>
   <v type="logical" >  T  T  T </v>
   <v type="logical" >  T  T  T </v>
   <v type="logical" >  T  T  T </v>
   <v type="logical" >  T  T  T </v>
   <v type="logical" >  T  T  T </v>
   <v type="logical" >  T  T  T </v>
  </varray>
  <nose>
   <v>      -3.00000000       0.00000000       0.00010000       0.00010000 </v>
  </nose>
 </structure>
 <calculation>
  <scstep>
   <time name="dav">    7.59    7.65</time>
   <time name="total">    7.68    7.74</time>
   <energy>
    <i name="alphaZ">    844.48149002 </i>
    <i name="ewald"> 172984.37696625 </i>
    <i name="hartreedc">-216122.45045090 </i>
    <i name="XCdc">   1468.46119873 </i>
    <i name="pawpsdc">  39302.70853331 </i>
    <i name="pawaedc"> -42689.07521165 </i>
    <i name="eentropy">      0.01773477 </i>
    <i name="bandstr">   2945.83245996 </i>
    <i name="atom">  44535.60175172 </i>
    <i name="e_fr_energy">   3269.95447221 </i>
    <i name="e_wo_entrp">   3269.93673744 </i>
    <i name="e_0_energy">   3269.94856062 </i>
   </energy>
  </scstep>
  <scstep>
   <time name="dav">    7.50    7.56</time>
   <time name="total">    7.50    7.56</time>
   <energy>
    <i name="e_fr_energy">    382.96147884 </i>
    <i name="e_wo_entrp">    382.96512432 </i>
    <i name="e_0_energy">    382.96269400 </i>
   </energy>
  </scstep>
  <scstep>
   <time name="dav">    7.48    7.54</time>
   <time name="total">    7.48    7.54</time>
   <energy>
    <i name="e_fr_energy">   -100.70009552 </i>
    <i name="e_wo_entrp">   -100.71949061 </i>
    <i name="e_0_energy">   -100.70656055 </i>
   </energy>
  </scstep>
  <scstep>
   <time name="dav">    8.23    8.30</time>
   <time name="total">    8.24    8.30</time>
   <energy>
    <i name="e_fr_energy">   -133.77799541 </i>
    <i name="e_wo_entrp">   -133.80224060 </i>
    <i name="e_0_energy">   -133.78607714 </i>
   </energy>
  </scstep>
  <scstep>
   <time name="dav">    8.22    8.29</time>
   <time name="total">    8.61    8.68</time>
   <energy>
    <i name="e_fr_energy">   -134.55107969 </i>
    <i name="e_wo_entrp">   -134.57659151 </i>
    <i name="e_0_energy">   -134.55958363 </i>
   </energy>
  </scstep>
  <scstep>
   <time name="dav">    7.94    8.00</time>
   <time name="total">    8.40    8.46</time>
   <energy>
    <i name="e_fr_energy">   -108.09659445 </i>
    <i name="e_wo_entrp">   -108.09417479 </i>
    <i name="e_0_energy">   -108.09578789 </i>
   </energy>
  </scstep>
  <scstep>
   <time name="dav">    8.10    8.16</time>
   <time name="total">    8.55    8.61</time>
   <energy>
    <i name="e_fr_energy">    -94.85440962 </i>
    <i name="e_wo_entrp">    -94.84533308 </i>
    <i name="e_0_energy">    -94.85138410 </i>
   </energy>
  </scstep>
  <scstep>
   <time name="dav">    8.26    8.32</time>
   <time name="total">    8.71    8.77</time>
   <energy>
    <i name="e_fr_energy">    -93.50666482 </i>
    <i name="e_wo_entrp">    -93.51119362 </i>
    <i name="e_0_energy">    -93.50817442 </i>
   </energy>
  </scstep>
  <scstep>
   <time name="dav">    9.67    9.74</time>
   <time name="total">   10.10   10.18</time>
   <energy>
    <i name="e_fr_energy">    -91.55707159 </i>
    <i name="e_wo_entrp">    -91.55596290 </i>
    <i name="e_0_energy">    -91.55670203 </i>
   </energy>
  </scstep>
  <scstep>
   <time name="dav">   10.21   10.30</time>
   <time name="total">   10.66   10.75</time>
   <energy>
    <i name="e_fr_energy">    -93.31267656 </i>
    <i name="e_wo_entrp">    -93.31650682 </i>
    <i name="e_0_energy">    -93.31395332 </i>
   </energy>
  </scstep>
  <scstep>
   <time name="dav">   10.42   10.50</time>
   <time name="total">   10.85   10.94</time>
   <energy>
    <i name="e_fr_energy">    -93.00590855 </i>
    <i name="e_wo_entrp">    -92.98885763 </i>
    <i name="e_0_energy">    -93.00022491 </i>
   </energy>
  </scstep>
  <scstep>
   <time name="dav">    9.53    9.61</time>
   <time name="total">    9.97   10.06</time>
   <energy>
    <i name="e_fr_energy">    -95.31186839 </i>
    <i name="e_wo_entrp">    -95.26992397 </i>
    <i name="e_0_energy">    -95.29788692 </i>
   </energy>
  </scstep>
  <scstep>
   <time name="dav">    8.92    8.99</time>
   <time name="total">    9.37    9.44</time>
   <energy>
    <i name="e_fr_energy">   -100.22022119 </i>
    <i name="e_wo_entrp">   -100.20006521 </i>
    <i name="e_0_energy">   -100.21350253 </i>
   </energy>
  </scstep>
  <scstep>
   <time name="dav">    9.04    9.11</time>
   <time name="total">    9.49    9.56</time>
   <energy>
    <i name="e_fr_energy">   -105.79295062 </i>
    <i name="e_wo_entrp">   -105.78639732 </i>
    <i name="e_0_energy">   -105.79076619 </i>
   </energy>
  </scstep>
  <scstep>
   <time name="dav">    9.62    9.70</time>
   <time name="total">   10.07   10.15</time>
   <energy>
    <i name="e_fr_energy">   -110.31076325 </i>
    <i name="e_wo_entrp">   -110.33681187 </i>
    <i name="e_0_energy">   -110.31944612 </i>
   </energy>
  </scstep>
  <scstep>
   <time name="dav">    8.08    8.14</time>
   <time name="total">    8.53    8.60</time>
   <energy>
    <i name="e_fr_energy">   -113.01931489 </i>
    <i name="e_wo_entrp">   -113.06337847 </i>
    <i name="e_0_energy">   -113.03400275 </i>
   </energy>
  </scstep>
  <scstep>
   <time name="dav">    8.28    8.35</time>
   <time name="total">    8.73    8.80</time>
   <energy>
    <i name="e_fr_energy">   -114.78007622 </i>
    <i name="e_wo_entrp">   -114.82287108 </i>
    <i name="e_0_energy">   -114.79434117 </i>
   </energy>
  </scstep>
  <scstep>
   <time name="dav">    8.38    8.45</time>
   <time name="total">    8.83    8.90</time>
   <energy>
    <i name="e_fr_energy">   -116.08300105 </i>
    <i name="e_wo_entrp">   -116.11057835 </i>
    <i name="e_0_energy">   -116.09219348 </i>
   </energy>
  </scstep>
  <scstep>
   <time name="dav">    8.48    8.55</time>
   <time name="total">    8.93    9.00</time>
   <energy>
    <i name="e_fr_energy">   -116.73140515 </i>
    <i name="e_wo_entrp">   -116.75954446 </i>
    <i name="e_0_energy">   -116.74078492 </i>
   </energy>
  </scstep>
  <scstep>
   <time name="dav">    8.05    8.12</time>
   <time name="total">    8.50    8.56</time>
   <energy>
    <i name="e_fr_energy">   -117.14672747 </i>
    <i name="e_wo_entrp">   -117.17452944 </i>
    <i name="e_0_energy">   -117.15599479 </i>
   </energy>
  </scstep>
  <scstep>
   <time name="dav">    8.36    8.43</time>
   <time name="total">    8.82    8.89</time>
   <energy>
    <i name="e_fr_energy">   -117.27575495 </i>
    <i name="e_wo_entrp">   -117.30643610 </i>
    <i name="e_0_energy">   -117.28598200 </i>
   </energy>
  </scstep>
  <scstep>
   <time name="dav">    9.05    9.12</time>
   <time name="total">    9.51    9.59</time>
   <energy>
    <i name="e_fr_energy">   -117.51233350 </i>
    <i name="e_wo_entrp">   -117.54480921 </i>
    <i name="e_0_energy">   -117.52315874 </i>
   </energy>
  </scstep>
  <scstep>
   <time name="dav">    8.76    8.83</time>
   <time name="total">    9.22    9.29</time>
   <energy>
    <i name="e_fr_energy">   -117.69535228 </i>
    <i name="e_wo_entrp">   -117.72645620 </i>
    <i name="e_0_energy">   -117.70572025 </i>
   </energy>
  </scstep>
  <scstep>
   <time name="dav">    9.43    9.50</time>
   <time name="total">    9.88    9.96</time>
   <energy>
    <i name="e_fr_energy">   -117.85810066 </i>
    <i name="e_wo_entrp">   -117.89127623 </i>
    <i name="e_0_energy">   -117.86915918 </i>
   </energy>
  </scstep>
  <scstep>
   <time name="dav">    8.89    8.97</time>
   <time name="total">    9.34    9.42</time>
   <energy>
    <i name="e_fr_energy">   -118.00804235 </i>
    <i name="e_wo_entrp">   -118.04043517 </i>
    <i name="e_0_energy">   -118.01883996 </i>
   </energy>
  </scstep>
  <scstep>
   <time name="dav">    9.23    9.30</time>
   <time name="total">    9.68    9.76</time>
   <energy>
    <i name="e_fr_energy">   -118.15220691 </i>
    <i name="e_wo_entrp">   -118.18527853 </i>
    <i name="e_0_energy">   -118.16323078 </i>
   </energy>
  </scstep>
  <scstep>
   <time name="dav">    8.44    8.50</time>
   <time name="total">    8.89    8.96</time>
   <energy>
    <i name="e_fr_energy">   -118.21390855 </i>
    <i name="e_wo_entrp">   -118.24746800 </i>
    <i name="e_0_energy">   -118.22509503 </i>
   </energy>
  </scstep>
  <scstep>
   <time name="dav">    6.94    6.99</time>
   <time name="total">    7.39    7.45</time>
   <energy>
    <i name="e_fr_energy">   -118.24307409 </i>
    <i name="e_wo_entrp">   -118.27627204 </i>
    <i name="e_0_energy">   -118.25414007 </i>
   </energy>
  </scstep>
  <scstep>
   <time name="dav">    6.07    6.11</time>
   <time name="total">    6.52    6.57</time>
   <energy>
    <i name="e_fr_energy">   -118.24866782 </i>
    <i name="e_wo_entrp">   -118.28201590 </i>
    <i name="e_0_energy">   -118.25978385 </i>
   </energy>
  </scstep>
  <scstep>
   <time name="dav">    5.72    5.77</time>
   <time name="total">    6.18    6.23</time>
   <energy>
    <i name="e_fr_energy">   -118.25073995 </i>
    <i name="e_wo_entrp">   -118.28413070 </i>
    <i name="e_0_energy">   -118.26187020 </i>
   </energy>
  </scstep>
  <scstep>
   <time name="dav">    5.62    5.66</time>
   <time name="total">    6.07    6.12</time>
   <energy>
    <i name="e_fr_energy">   -118.25206178 </i>
    <i name="e_wo_entrp">   -118.28529859 </i>
    <i name="e_0_energy">   -118.26314072 </i>
   </energy>
  </scstep>
  <scstep>
   <time name="dav">    5.57    5.61</time>
   <time name="total">    6.02    6.07</time>
   <energy>
    <i name="e_fr_energy">   -118.25230033 </i>
    <i name="e_wo_entrp">   -118.28554768 </i>
    <i name="e_0_energy">   -118.26338278 </i>
   </energy>
  </scstep>
  <scstep>
   <time name="dav">    5.56    5.60</time>
   <time name="total">    5.64    5.68</time>
   <energy>
    <i name="alphaZ">    844.48149002 </i>
    <i name="ewald"> 172984.37696625 </i>
    <i name="hartreedc">-215750.58708792 </i>
    <i name="XCdc">   1431.89968195 </i>
    <i name="pawpsdc">  41954.02643738 </i>
    <i name="pawaedc"> -45402.01021327 </i>
    <i name="eentropy">      0.03326928 </i>
    <i name="bandstr">   -716.07467272 </i>
    <i name="atom">  44535.60175172 </i>
    <i name="e_fr_energy">   -118.25237731 </i>
    <i name="e_wo_entrp">   -118.28564659 </i>
    <i name="e_0_energy">   -118.26346707 </i>
   </energy>
  </scstep>
  <structure>
   <crystal>
    <varray name="basis" >
     <v>       7.26000023       0.00000000       0.00000000 </v>
     <v>       0.00000000       5.13359547       0.00000000 </v>
     <v>       0.00000000       0.00000000      23.98379135 </v>
    </varray>
    <i name="volume">    893.87360752 </i>
    <varray name="rec_basis" >
     <v>       0.13774104       0.00000000       0.00000000 </v>
     <v>       0.00000000       0.19479525       0.00000000 </v>
     <v>       0.00000000       0.00000000       0.04169483 </v>
    </varray>
   </crystal>
   <varray name="positions" >
    <v>       0.00000000       0.00000000       0.00000000 </v>
    <v>       0.00000000       0.50000000       0.00000000 </v>
    <v>       0.50000000       0.00000000       0.00000000 </v>
    <v>       0.50000000       0.50000000       0.00000000 </v>
    <v>       0.25000000       0.25000000       0.05351109 </v>
    <v>       0.25000000       0.75000000       0.05351109 </v>
    <v>       0.75000000       0.25000000       0.05351109 </v>
    <v>       0.75000000       0.75000000       0.05351109 </v>
    <v>       0.00000000       0.00000000       0.10541371 </v>
    <v>       0.00000000       0.50000000       0.10541371 </v>
    <v>       0.50000000       0.00000000       0.10541371 </v>
    <v>       0.50000000       0.50000000       0.10541371 </v>
    <v>       0.25000000       0.25000000       0.15715010 </v>
    <v>       0.25000000       0.75000000       0.15715010 </v>
    <v>       0.75000000       0.25000000       0.15715010 </v>
    <v>       0.75000000       0.75000000       0.15715010 </v>
    <v>       0.00000000       0.00000000       0.20866257 </v>
    <v>       0.00000000       0.50000000       0.20866257 </v>
    <v>       0.50000000       0.00000000       0.20866257 </v>
    <v>       0.50000000       0.50000000       0.20866257 </v>
    <v>       0.25000000       0.25000000       0.25947965 </v>
    <v>       0.25000000       0.75000000       0.25947965 </v>
    <v>       0.75000000       0.25000000       0.25947965 </v>
    <v>       0.75000000       0.75000000       0.25947965 </v>
    <v>       0.00000000       0.00000000       0.31415415 </v>
    <v>       0.00000000       0.50000000       0.31415415 </v>
    <v>       0.50000000       0.00000000       0.31415415 </v>
    <v>       0.50000000       0.50000000       0.31415415 </v>
    <v>       0.25000000       0.25000000       0.36181799 </v>
    <v>       0.25000000       0.75000000       0.36181799 </v>
    <v>       0.75000000       0.25000000       0.36181799 </v>
    <v>       0.75000000       0.75000000       0.36181799 </v>
    <v>       0.75000000       0.50000000       0.42690792 </v>
    <v>       0.75000000       0.50000000       0.45801226 </v>
   </varray>
  </structure>
  <varray name="forces" >
   <v>       0.01470737       0.00000000       0.45114093 </v>
   <v>       0.02166372       0.00000000       0.44538743 </v>
   <v>      -0.01470737       0.00000000       0.45114093 </v>
   <v>      -0.02166372       0.00000000       0.44538743 </v>
   <v>       0.00000000       0.01642877      -0.47794685 </v>
   <v>       0.00000000      -0.01642877      -0.47794685 </v>
   <v>       0.00000000      -0.00519563      -0.43437385 </v>
   <v>       0.00000000       0.00519563      -0.43437385 </v>
   <v>       0.00368707       0.00000000      -0.02400543 </v>
   <v>      -0.00077078       0.00000000      -0.01703180 </v>
   <v>      -0.00368707       0.00000000      -0.02400543 </v>
   <v>       0.00077078       0.00000000      -0.01703180 </v>
   <v>       0.00000000       0.00752437      -0.00280542 </v>
   <v>       0.00000000      -0.00752437      -0.00280542 </v>
   <v>       0.00000000       0.00354322       0.03838509 </v>
   <v>       0.00000000      -0.00354322       0.03838509 </v>
   <v>       0.00010859       0.00000000      -0.00856522 </v>
   <v>       0.01602097       0.00000000       0.00071691 </v>
   <v>      -0.00010859       0.00000000      -0.00856522 </v>
   <v>      -0.01602097       0.00000000       0.00071691 </v>
   <v>       0.00000000      -0.00814562      -0.01647328 </v>
   <v>       0.00000000       0.00814562      -0.01647328 </v>
   <v>       0.00000000       0.04517033       0.05811919 </v>
   <v>       0.00000000      -0.04517033       0.05811919 </v>
   <v>       0.01217663       0.00000000       0.03368229 </v>
   <v>       0.04464318       0.00000000      -0.06145418 </v>
   <v>      -0.01217663       0.00000000       0.03368229 </v>
   <v>      -0.04464318       0.00000000      -0.06145418 </v>
   <v>       0.00000000      -0.00615984      -0.00126207 </v>
   <v>       0.00000000       0.00615984      -0.00126207 </v>
   <v>       0.00000000      -0.16428026      -0.15891818 </v>
   <v>       0.00000000       0.16428026      -0.15891818 </v>
   <v>       0.00000000       0.00000000      -0.82738530 </v>
   <v>       0.00000000       0.00000000       1.17819411 </v>
  </varray>
  <varray name="stress" >
   <v>     -31.78474359       0.00000000       0.00000000 </v>
   <v>       0.00000000     -28.23776872       0.00000000 </v>
   <v>       0.00000000       0.00000000      -5.21355177 </v>
  </varray>
  <energy>
   <i name="e_fr_energy">   -130.61120147 </i>
   <i name="e_wo_entrp">   -130.64447075 </i>
   <i name="e_0_energy">   -130.62229123 </i>
  </energy>
  <time name="totalsc">  297.35  299.73</time>
 </calculation>
 <calculation>
  <scstep>
   <time name="dav">    7.58    7.64</time>
   <time name="total">    8.04    8.10</time>
   <energy>
    <i name="alphaZ">    844.48149002 </i>
    <i name="ewald"> 173051.68279553 </i>
    <i name="hartreedc">-215818.87104276 </i>
    <i name="XCdc">   1431.84741116 </i>
    <i name="pawpsdc">  41953.92148218 </i>
    <i name="pawaedc"> -45401.89459469 </i>
    <i name="eentropy">      0.03430062 </i>
    <i name="bandstr">   -715.02593773 </i>
    <i name="atom">  44535.60175172 </i>
    <i name="e_fr_energy">   -118.22234395 </i>
    <i name="e_wo_entrp">   -118.25664457 </i>
    <i name="e_0_energy">   -118.23377749 </i>
   </energy>
  </scstep>
  <scstep>
   <time name="dav">    9.58    9.65</time>
   <time name="total">   10.03   10.11</time>
   <energy>
    <i name="e_fr_energy">   -118.22802765 </i>
    <i name="e_wo_entrp">   -118.26159642 </i>
    <i name="e_0_energy">   -118.23921724 </i>
   </energy>
  </scstep>
  <scstep>
   <time name="dav">    8.49    8.56</time>
   <time name="total">    8.95    9.02</time>
   <energy>
    <i name="e_fr_energy">   -118.22804489 </i>
    <i name="e_wo_entrp">   -118.26321305 </i>
    <i name="e_0_energy">   -118.23976761 </i>
   </energy>
  </scstep>
  <scstep>
   <time name="dav">    8.16    8.22</time>
   <time name="total">    8.61    8.67</time>
   <energy>
    <i name="e_fr_energy">   -118.22681107 </i>
    <i name="e_wo_entrp">   -118.26064574 </i>
    <i name="e_0_energy">   -118.23808930 </i>
   </energy>
  </scstep>
  <scstep>
   <time name="dav">   10.26   10.34</time>
   <time name="total">   10.71   10.80</time>
   <energy>
    <i name="e_fr_energy">   -118.22608893 </i>
    <i name="e_wo_entrp">   -118.25988940 </i>
    <i name="e_0_energy">   -118.23735575 </i>
   </energy>
  </scstep>
  <scstep>
   <time name="dav">    8.73    8.80</time>
   <time name="total">    9.18    9.26</time>
   <energy>
    <i name="e_fr_energy">   -118.22565015 </i>
    <i name="e_wo_entrp">   -118.26002312 </i>
    <i name="e_0_energy">   -118.23710781 </i>
   </energy>
  </scstep>
  <scstep>
   <time name="dav">    6.86    6.91</time>
   <time name="total">    6.95    7.00</time>
   <energy>
    <i name="alphaZ">    844.48149002 </i>
    <i name="ewald"> 173051.68279553 </i>
    <i name="hartreedc">-215813.83807601 </i>
    <i name="XCdc">   1431.72415918 </i>
    <i name="pawpsdc">  41952.23564517 </i>
    <i name="pawaedc"> -45400.22963558 </i>
    <i name="eentropy">      0.03406380 </i>
    <i name="bandstr">   -719.91785329 </i>
    <i name="atom">  44535.60175172 </i>
    <i name="e_fr_energy">   -118.22565945 </i>
    <i name="e_wo_entrp">   -118.25972326 </i>
    <i name="e_0_energy">   -118.23701405 </i>
   </energy>
  </scstep>
  <structure>
   <crystal>
    <varray name="basis" >
     <v>       7.26000023       0.00000000       0.00000000 </v>
     <v>       0.00000000       5.13359547       0.00000000 </v>
     <v>       0.00000000       0.00000000      23.98379135 </v>
    </varray>
    <i name="volume">    893.87360752 </i>
    <varray name="rec_basis" >
     <v>       0.13774104       0.00000000       0.00000000 </v>
     <v>       0.00000000       0.19479525       0.00000000 </v>
     <v>       0.00000000       0.00000000       0.04169483 </v>
    </varray>
   </crystal>
   <varray name="positions" >
    <v>       0.00000000       0.00000000       0.00000000 </v>
    <v>       0.00000000       0.50000000       0.00000000 </v>
    <v>       0.50000000       0.00000000       0.00000000 </v>
    <v>       0.50000000       0.50000000       0.00000000 </v>
    <v>       0.25000000       0.25000000       0.05351109 </v>
    <v>       0.25000000       0.75000000       0.05351109 </v>
    <v>       0.75000000       0.25000000       0.05351109 </v>
    <v>       0.75000000       0.75000000       0.05351109 </v>
    <v>       0.00000000       0.00000000       0.10541371 </v>
    <v>       0.00000000       0.50000000       0.10541371 </v>
    <v>       0.50000000       0.00000000       0.10541371 </v>
    <v>       0.50000000       0.50000000       0.10541371 </v>
    <v>       0.25000000       0.25007071       0.15714445 </v>
    <v>       0.25000000       0.74992929       0.15714445 </v>
    <v>       0.75000000       0.25003330       0.15722731 </v>
    <v>       0.75000000       0.74996670       0.15722731 </v>
    <v>       0.00000072       0.00000000       0.20864534 </v>
    <v>       0.00010646       0.50000000       0.20866401 </v>
    <v>       0.49999928       0.00000000       0.20864534 </v>
    <v>       0.49989354       0.50000000       0.20866401 </v>
    <v>       0.25000000       0.24992345       0.25944652 </v>
    <v>       0.25000000       0.75007655       0.25944652 </v>
    <v>       0.75000000       0.25042449       0.25959656 </v>
    <v>       0.75000000       0.74957551       0.25959656 </v>
    <v>       0.00008091       0.00000000       0.31422190 </v>
    <v>       0.00029665       0.50000000       0.31403054 </v>
    <v>       0.49991909       0.00000000       0.31422190 </v>
    <v>       0.49970335       0.50000000       0.31403054 </v>
    <v>       0.25000000       0.24994211       0.36181545 </v>
    <v>       0.25000000       0.75005789       0.36181545 </v>
    <v>       0.75000000       0.24845619       0.36149833 </v>
    <v>       0.75000000       0.75154381       0.36149833 </v>
    <v>       0.75000000       0.50000000       0.42524366 </v>
    <v>       0.75000000       0.50000000       0.46038216 </v>
   </varray>
  </structure>
  <varray name="forces" >
   <v>       0.01530773       0.00000000       0.44821670 </v>
   <v>       0.02191386       0.00000000       0.44245807 </v>
   <v>      -0.01530773       0.00000000       0.44821670 </v>
   <v>      -0.02191386       0.00000000       0.44245807 </v>
   <v>       0.00000000       0.01526026      -0.47715549 </v>
   <v>       0.00000000      -0.01526026      -0.47715549 </v>
   <v>       0.00000000      -0.00490822      -0.42889295 </v>
   <v>       0.00000000       0.00490822      -0.42889295 </v>
   <v>       0.00132946       0.00000000      -0.02351300 </v>
   <v>      -0.00364332       0.00000000      -0.01623944 </v>
   <v>      -0.00132946       0.00000000      -0.02351300 </v>
   <v>       0.00364332       0.00000000      -0.01623944 </v>
   <v>       0.00000000       0.00128536      -0.00556984 </v>
   <v>       0.00000000      -0.00128536      -0.00556984 </v>
   <v>       0.00000000       0.00127601       0.02473970 </v>
   <v>       0.00000000      -0.00127601       0.02473970 </v>
   <v>      -0.00503064       0.00000000       0.00104589 </v>
   <v>       0.00711819       0.00000000      -0.00573967 </v>
   <v>       0.00503064       0.00000000       0.00104589 </v>
   <v>      -0.00711819       0.00000000      -0.00573967 </v>
   <v>       0.00000000      -0.00884864      -0.01209127 </v>
   <v>       0.00000000       0.00884864      -0.01209127 </v>
   <v>       0.00000000       0.01521071       0.00705309 </v>
   <v>       0.00000000      -0.01521071       0.00705309 </v>
   <v>       0.03274810       0.00000000      -0.00294328 </v>
   <v>       0.02956192       0.00000000      -0.03911224 </v>
   <v>      -0.03274810       0.00000000      -0.00294328 </v>
   <v>      -0.02956192       0.00000000      -0.03911224 </v>
   <v>       0.00000000      -0.00185452       0.00144413 </v>
   <v>       0.00000000       0.00185452       0.00144413 </v>
   <v>       0.00000000      -0.03369176      -0.02865012 </v>
   <v>       0.00000000       0.03369176      -0.02865012 </v>
   <v>       0.00000000       0.00000000       1.07958275 </v>
   <v>       0.00000000       0.00000000      -0.84968332 </v>
  </varray>
  <varray name="stress" >
   <v>     -31.09322812       0.00000000       0.00000000 </v>
   <v>       0.00000000     -27.78525933       0.00000000 </v>
   <v>       0.00000000       0.00000000      -7.76390793 </v>
  </varray>
  <energy>
   <i name="e_fr_energy">   -130.60178429 </i>
   <i name="e_wo_entrp">   -130.63584810 </i>
   <i name="e_0_energy">   -130.61313889 </i>
  </energy>
  <time name="totalsc">   77.42   78.06</time>
 </calculation>
 <calculation>
  <scstep>
   <time name="dav">    7.56    7.62</time>
   <time name="total">    8.01    8.08</time>
   <energy>
    <i name="alphaZ">    844.48149002 </i>
    <i name="ewald"> 173011.91901472 </i>
    <i name="hartreedc">-215773.14576021 </i>
    <i name="XCdc">   1431.75394763 </i>
    <i name="pawpsdc">  41952.39092659 </i>
    <i name="pawaedc"> -45400.41650495 </i>
    <i name="eentropy">      0.03365138 </i>
    <i name="bandstr">   -720.88571471 </i>
    <i name="atom">  44535.60175172 </i>
    <i name="e_fr_energy">   -118.26719781 </i>
    <i name="e_wo_entrp">   -118.30084918 </i>
    <i name="e_0_energy">   -118.27841493 </i>
   </energy>
  </scstep>
  <scstep>
   <time name="dav">    9.55    9.63</time>
   <time name="total">   10.01   10.08</time>
   <energy>
    <i name="e_fr_energy">   -118.27035970 </i>
    <i name="e_wo_entrp">   -118.30431643 </i>
    <i name="e_0_energy">   -118.28167861 </i>
   </energy>
  </scstep>
  <scstep>
   <time name="dav">    8.40    8.46</time>
   <time name="total">    8.84    8.91</time>
   <energy>
    <i name="e_fr_energy">   -118.27068849 </i>
    <i name="e_wo_entrp">   -118.30364254 </i>
    <i name="e_0_energy">   -118.28167317 </i>
   </energy>
  </scstep>
  <scstep>
   <time name="dav">    8.71    8.78</time>
   <time name="total">    9.17    9.24</time>
   <energy>
    <i name="e_fr_energy">   -118.27052308 </i>
    <i name="e_wo_entrp">   -118.30430249 </i>
    <i name="e_0_energy">   -118.28178288 </i>
   </energy>
  </scstep>
  <scstep>
   <time name="dav">    7.97    8.03</time>
   <time name="total">    8.42    8.49</time>
   <energy>
    <i name="e_fr_energy">   -118.26964959 </i>
    <i name="e_wo_entrp">   -118.30365007 </i>
    <i name="e_0_energy">   -118.28098309 </i>
   </energy>
  </scstep>
  <scstep>
   <time name="dav">    5.83    5.88</time>
   <time name="total">    5.91    5.96</time>
   <energy>
    <i name="alphaZ">    844.48149002 </i>
    <i name="ewald"> 173011.91901472 </i>
    <i name="hartreedc">-215775.34143911 </i>
    <i name="XCdc">   1431.82386696 </i>
    <i name="pawpsdc">  41953.39867961 </i>
    <i name="pawaedc"> -45401.41235960 </i>
    <i name="eentropy">      0.03354145 </i>
    <i name="bandstr">   -718.77405850 </i>
    <i name="atom">  44535.60175172 </i>
    <i name="e_fr_energy">   -118.26951272 </i>
    <i name="e_wo_entrp">   -118.30305417 </i>
    <i name="e_0_energy">   -118.28069320 </i>
   </energy>
  </scstep>
  <structure>
   <crystal>
    <varray name="basis" >
     <v>       7.26000023       0.00000000       0.00000000 </v>
     <v>       0.00000000       5.13359547       0.00000000 </v>
     <v>       0.00000000       0.00000000      23.98379135 </v>
    </varray>
    <i name="volume">    893.87360752 </i>
    <varray name="rec_basis" >
     <v>       0.13774104       0.00000000       0.00000000 </v>
     <v>       0.00000000       0.19479525       0.00000000 </v>
     <v>       0.00000000       0.00000000       0.04169483 </v>
    </varray>
   </crystal>
   <varray name="positions" >
    <v>       0.00000000       0.00000000       0.00000000 </v>
    <v>       0.00000000       0.50000000       0.00000000 </v>
    <v>       0.50000000       0.00000000       0.00000000 </v>
    <v>       0.50000000       0.50000000       0.00000000 </v>
    <v>       0.25000000       0.25000000       0.05351109 </v>
    <v>       0.25000000       0.75000000       0.05351109 </v>
    <v>       0.75000000       0.25000000       0.05351109 </v>
    <v>       0.75000000       0.75000000       0.05351109 </v>
    <v>       0.00000000       0.00000000       0.10541371 </v>
    <v>       0.00000000       0.50000000       0.10541371 </v>
    <v>       0.50000000       0.00000000       0.10541371 </v>
    <v>       0.50000000       0.50000000       0.10541371 </v>
    <v>       0.25000000       0.25002907       0.15714778 </v>
    <v>       0.25000000       0.74997093       0.15714778 </v>
    <v>       0.75000000       0.25001369       0.15718184 </v>
    <v>       0.75000000       0.74998631       0.15718184 </v>
    <v>       0.00000030       0.00000000       0.20865549 </v>
    <v>       0.00004376       0.50000000       0.20866316 </v>
    <v>       0.49999970       0.00000000       0.20865549 </v>
    <v>       0.49995624       0.50000000       0.20866316 </v>
    <v>       0.25000000       0.24996853       0.25946603 </v>
    <v>       0.25000000       0.75003147       0.25946603 </v>
    <v>       0.75000000       0.25017450       0.25952771 </v>
    <v>       0.75000000       0.74982550       0.25952771 </v>
    <v>       0.00003326       0.00000000       0.31418200 </v>
    <v>       0.00012195       0.50000000       0.31410334 </v>
    <v>       0.49996674       0.00000000       0.31418200 </v>
    <v>       0.49987805       0.50000000       0.31410334 </v>
    <v>       0.25000000       0.24997620       0.36181695 </v>
    <v>       0.25000000       0.75002380       0.36181695 </v>
    <v>       0.75000000       0.24936537       0.36168658 </v>
    <v>       0.75000000       0.75063463       0.36168658 </v>
    <v>       0.75000000       0.50000000       0.42622378 </v>
    <v>       0.75000000       0.50000000       0.45898648 </v>
   </varray>
  </structure>
  <varray name="forces" >
   <v>       0.01531290       0.00000000       0.45192263 </v>
   <v>       0.02258214       0.00000000       0.44627007 </v>
   <v>      -0.01531290       0.00000000       0.45192263 </v>
   <v>      -0.02258214       0.00000000       0.44627007 </v>
   <v>       0.00000000       0.01653777      -0.47636109 </v>
   <v>       0.00000000      -0.01653777      -0.47636109 </v>
   <v>       0.00000000      -0.00498837      -0.43093387 </v>
   <v>       0.00000000       0.00498837      -0.43093387 </v>
   <v>       0.00357596       0.00000000      -0.02203754 </v>
   <v>      -0.00118866       0.00000000      -0.01505410 </v>
   <v>      -0.00357596       0.00000000      -0.02203754 </v>
   <v>       0.00118866       0.00000000      -0.01505410 </v>
   <v>       0.00000000       0.00743928      -0.00147766 </v>
   <v>       0.00000000      -0.00743928      -0.00147766 </v>
   <v>      -0.00000000       0.00355103       0.04496533 </v>
   <v>      -0.00000000      -0.00355103       0.04496533 </v>
   <v>      -0.00067808       0.00000000      -0.00342743 </v>
   <v>       0.01778911       0.00000000       0.00260228 </v>
   <v>       0.00067808       0.00000000      -0.00342743 </v>
   <v>      -0.01778911       0.00000000       0.00260228 </v>
   <v>       0.00000000      -0.01029660      -0.01578426 </v>
   <v>       0.00000000       0.01029660      -0.01578426 </v>
   <v>       0.00000000       0.04436610       0.05321597 </v>
   <v>       0.00000000      -0.04436610       0.05321597 </v>
   <v>       0.02541512       0.00000000       0.02672988 </v>
   <v>       0.05149773       0.00000000      -0.06690134 </v>
   <v>      -0.02541512       0.00000000       0.02672988 </v>
   <v>      -0.05149773       0.00000000      -0.06690134 </v>
   <v>       0.00000000      -0.00639789      -0.00345331 </v>
   <v>       0.00000000       0.00639789      -0.00345331 </v>
   <v>       0.00000000      -0.13564616      -0.13859798 </v>
   <v>       0.00000000       0.13564616      -0.13859798 </v>
   <v>       0.00000000       0.00000000       0.22854712 </v>
   <v>       0.00000000       0.00000000       0.06809774 </v>
  </varray>
  <varray name="stress" >
   <v>     -31.86329292       0.00000000       0.00000000 </v>
   <v>       0.00000000     -28.45901016       0.00000000 </v>
   <v>       0.00000000       0.00000000      -6.89314410 </v>
  </varray>
  <energy>
   <i name="e_fr_energy">   -130.63164303 </i>
   <i name="e_wo_entrp">   -130.66518448 </i>
   <i name="e_0_energy">   -130.64282352 </i>
  </energy>
  <time name="totalsc">   65.32   65.84</time>
 </calculation>
 <calculation>
  <scstep>
   <time name="dav">    7.74    7.80</time>
   <time name="total">    8.19    8.26</time>
   <energy>
    <i name="alphaZ">    844.48149002 </i>
    <i name="ewald"> 173073.40254953 </i>
    <i name="hartreedc">-215836.61299136 </i>
    <i name="XCdc">   1431.83708110 </i>
    <i name="pawpsdc">  41953.34733062 </i>
    <i name="pawaedc"> -45401.34776323 </i>
    <i name="eentropy">      0.03409594 </i>
    <i name="bandstr">   -719.01397842 </i>
    <i name="atom">  44535.60175172 </i>
    <i name="e_fr_energy">   -118.27043409 </i>
    <i name="e_wo_entrp">   -118.30453003 </i>
    <i name="e_0_energy">   -118.28179940 </i>
   </energy>
  </scstep>
  <scstep>
   <time name="dav">    9.72    9.80</time>
   <time name="total">   10.17   10.25</time>
   <energy>
    <i name="e_fr_energy">   -118.27274637 </i>
    <i name="e_wo_entrp">   -118.30677299 </i>
    <i name="e_0_energy">   -118.28408858 </i>
   </energy>
  </scstep>
  <scstep>
   <time name="dav">    7.67    7.73</time>
   <time name="total">    7.76    7.82</time>
   <energy>
    <i name="alphaZ">    844.48149002 </i>
    <i name="ewald"> 173073.40254953 </i>
    <i name="hartreedc">-215836.41178506 </i>
    <i name="XCdc">   1431.83041994 </i>
    <i name="pawpsdc">  41954.58103054 </i>
    <i name="pawaedc"> -45402.54335148 </i>
    <i name="eentropy">      0.03405969 </i>
    <i name="bandstr">   -719.24890828 </i>
    <i name="atom">  44535.60175172 </i>
    <i name="e_fr_energy">   -118.27274339 </i>
    <i name="e_wo_entrp">   -118.30680308 </i>
    <i name="e_0_energy">   -118.28409662 </i>
   </energy>
  </scstep>
  <structure>
   <crystal>
    <varray name="basis" >
     <v>       7.26000023       0.00000000       0.00000000 </v>
     <v>       0.00000000       5.13359547       0.00000000 </v>
     <v>       0.00000000       0.00000000      23.98379135 </v>
    </varray>
    <i name="volume">    893.87360752 </i>
    <varray name="rec_basis" >
     <v>       0.13774104       0.00000000       0.00000000 </v>
     <v>       0.00000000       0.19479525       0.00000000 </v>
     <v>       0.00000000       0.00000000       0.04169483 </v>
    </varray>
   </crystal>
   <varray name="positions" >
    <v>       0.00000000       0.00000000       0.00000000 </v>
    <v>       0.00000000       0.50000000       0.00000000 </v>
    <v>       0.50000000       0.00000000       0.00000000 </v>
    <v>       0.50000000       0.50000000       0.00000000 </v>
    <v>       0.25000000       0.25000000       0.05351109 </v>
    <v>       0.25000000       0.75000000       0.05351109 </v>
    <v>       0.75000000       0.25000000       0.05351109 </v>
    <v>       0.75000000       0.75000000       0.05351109 </v>
    <v>       0.00000000       0.00000000       0.10541371 </v>
    <v>       0.00000000       0.50000000       0.10541371 </v>
    <v>       0.50000000       0.00000000       0.10541371 </v>
    <v>       0.50000000       0.50000000       0.10541371 </v>
    <v>       0.25000000       0.25009510       0.15714481 </v>
    <v>       0.25000000       0.74990490       0.15714481 </v>
    <v>       0.75000000       0.25004518       0.15726639 </v>
    <v>       0.75000000       0.74995482       0.15726639 </v>
    <v>      -0.00000363       0.00000000       0.20864834 </v>
    <v>       0.00015461       0.50000000       0.20866787 </v>
    <v>       0.50000363       0.00000000       0.20864834 </v>
    <v>       0.49984539       0.50000000       0.20866787 </v>
    <v>       0.25000000       0.24987845       0.25943598 </v>
    <v>       0.25000000       0.75012155       0.25943598 </v>
    <v>       0.75000000       0.25056848       0.25962935 </v>
    <v>       0.75000000       0.74943152       0.25962935 </v>
    <v>       0.00018724       0.00000000       0.31423361 </v>
    <v>       0.00044213       0.50000000       0.31397700 </v>
    <v>       0.49981276       0.00000000       0.31423361 </v>
    <v>       0.49955787       0.50000000       0.31397700 </v>
    <v>       0.25000000       0.24991959       0.36181066 </v>
    <v>       0.25000000       0.75008041       0.36181066 </v>
    <v>       0.75000000       0.24814565       0.36142094 </v>
    <v>       0.75000000       0.75185435       0.36142094 </v>
    <v>       0.75000000       0.50000000       0.42652678 </v>
    <v>       0.75000000       0.50000000       0.45925337 </v>
   </varray>
  </structure>
  <varray name="forces" >
   <v>       0.01461715       0.00000000       0.45081345 </v>
   <v>       0.02192822       0.00000000       0.44479125 </v>
   <v>      -0.01461715       0.00000000       0.45081345 </v>
   <v>      -0.02192822       0.00000000       0.44479125 </v>
   <v>       0.00000000       0.01591388      -0.47905544 </v>
   <v>       0.00000000      -0.01591388      -0.47905544 </v>
   <v>      -0.00000000      -0.00512119      -0.42803990 </v>
   <v>      -0.00000000       0.00512119      -0.42803990 </v>
   <v>      -0.00051122       0.00000000      -0.02391309 </v>
   <v>      -0.00582510       0.00000000      -0.01758322 </v>
   <v>       0.00051122       0.00000000      -0.02391309 </v>
   <v>       0.00582510       0.00000000      -0.01758322 </v>
   <v>      -0.00000000      -0.00078436      -0.00859532 </v>
   <v>      -0.00000000       0.00078436      -0.00859532 </v>
   <v>      -0.00000000       0.00096519       0.01720799 </v>
   <v>      -0.00000000      -0.00096519       0.01720799 </v>
   <v>      -0.00813847       0.00000000       0.00133614 </v>
   <v>       0.00558133       0.00000000      -0.00935194 </v>
   <v>       0.00813847       0.00000000       0.00133614 </v>
   <v>      -0.00558133       0.00000000      -0.00935194 </v>
   <v>      -0.00000000      -0.00946738      -0.01356858 </v>
   <v>      -0.00000000       0.00946738      -0.01356858 </v>
   <v>      -0.00000000       0.00910644      -0.00453951 </v>
   <v>      -0.00000000      -0.00910644      -0.00453951 </v>
   <v>       0.03334578       0.00000000      -0.00354246 </v>
   <v>       0.02051670       0.00000000      -0.02648500 </v>
   <v>      -0.03334578       0.00000000      -0.00354246 </v>
   <v>      -0.02051670       0.00000000      -0.02648500 </v>
   <v>       0.00000000       0.00151951       0.00309307 </v>
   <v>       0.00000000      -0.00151951       0.00309307 </v>
   <v>      -0.00000000      -0.02796549      -0.04739483 </v>
   <v>      -0.00000000       0.02796549      -0.04739483 </v>
   <v>      -0.00000000       0.00000000       0.23441876 </v>
   <v>      -0.00000000       0.00000000       0.05523603 </v>
  </varray>
  <varray name="stress" >
   <v>     -29.99578995       0.00000000       0.00000000 </v>
   <v>       0.00000000     -26.62091210       0.00000000 </v>
   <v>       0.00000000       0.00000000      -5.03093078 </v>
  </varray>
  <energy>
   <i name="e_fr_energy">   -130.63692151 </i>
   <i name="e_wo_entrp">   -130.67098120 </i>
   <i name="e_0_energy">   -130.64827474 </i>
  </energy>
  <time name="totalsc">   41.06   41.39</time>
 </calculation>
 <calculation>
  <scstep>
   <time name="dav">    7.77    7.83</time>
   <time name="total">    8.22    8.29</time>
   <energy>
    <i name="alphaZ">    844.48149002 </i>
    <i name="ewald"> 173132.91966107 </i>
    <i name="hartreedc">-215895.80290200 </i>
    <i name="XCdc">   1431.84872126 </i>
    <i name="pawpsdc">  41954.77974264 </i>
    <i name="pawaedc"> -45402.76585445 </i>
    <i name="eentropy">      0.03444963 </i>
    <i name="bandstr">   -719.36887441 </i>
    <i name="atom">  44535.60175172 </i>
    <i name="e_fr_energy">   -118.27181451 </i>
    <i name="e_wo_entrp">   -118.30626414 </i>
    <i name="e_0_energy">   -118.28329772 </i>
   </energy>
  </scstep>
  <scstep>
   <time name="dav">    9.73    9.80</time>
   <time name="total">   10.17   10.26</time>
   <energy>
    <i name="e_fr_energy">   -118.27392341 </i>
    <i name="e_wo_entrp">   -118.30839119 </i>
    <i name="e_0_energy">   -118.28541267 </i>
   </energy>
  </scstep>
  <scstep>
   <time name="dav">    7.69    7.75</time>
   <time name="total">    7.77    7.84</time>
   <energy>
    <i name="alphaZ">    844.48149002 </i>
    <i name="ewald"> 173132.91966107 </i>
    <i name="hartreedc">-215895.32660458 </i>
    <i name="XCdc">   1431.84706978 </i>
    <i name="pawpsdc">  41956.83475464 </i>
    <i name="pawaedc"> -45404.85882543 </i>
    <i name="eentropy">      0.03450360 </i>
    <i name="bandstr">   -719.80773576 </i>
    <i name="atom">  44535.60175172 </i>
    <i name="e_fr_energy">   -118.27393493 </i>
    <i name="e_wo_entrp">   -118.30843852 </i>
    <i name="e_0_energy">   -118.28543613 </i>
   </energy>
  </scstep>
  <structure>
   <crystal>
    <varray name="basis" >
     <v>       7.26000023       0.00000000       0.00000000 </v>
     <v>       0.00000000       5.13359547       0.00000000 </v>
     <v>       0.00000000       0.00000000      23.98379135 </v>
    </varray>
    <i name="volume">    893.87360752 </i>
    <varray name="rec_basis" >
     <v>       0.13774104       0.00000000       0.00000000 </v>
     <v>       0.00000000       0.19479525       0.00000000 </v>
     <v>       0.00000000       0.00000000       0.04169483 </v>
    </varray>
   </crystal>
   <varray name="positions" >
    <v>       0.00000000       0.00000000       0.00000000 </v>
    <v>       0.00000000       0.50000000       0.00000000 </v>
    <v>       0.50000000       0.00000000       0.00000000 </v>
    <v>       0.50000000       0.50000000       0.00000000 </v>
    <v>       0.25000000       0.25000000       0.05351109 </v>
    <v>       0.25000000       0.75000000       0.05351109 </v>
    <v>       0.75000000       0.25000000       0.05351109 </v>
    <v>       0.75000000       0.75000000       0.05351109 </v>
    <v>       0.00000000       0.00000000       0.10541371 </v>
    <v>       0.00000000       0.50000000       0.10541371 </v>
    <v>       0.50000000       0.00000000       0.10541371 </v>
    <v>       0.50000000       0.50000000       0.10541371 </v>
    <v>       0.25000000       0.25015890       0.15714194 </v>
    <v>       0.25000000       0.74984110       0.15714194 </v>
    <v>       0.75000000       0.25007561       0.15734808 </v>
    <v>       0.75000000       0.74992439       0.15734808 </v>
    <v>      -0.00000743       0.00000000       0.20864144 </v>
    <v>       0.00026170       0.50000000       0.20867242 </v>
    <v>       0.50000743       0.00000000       0.20864144 </v>
    <v>       0.49973830       0.50000000       0.20867242 </v>
    <v>       0.25000000       0.24979142       0.25940694 </v>
    <v>       0.25000000       0.75020858       0.25940694 </v>
    <v>       0.75000000       0.25094912       0.25972755 </v>
    <v>       0.75000000       0.74905088       0.25972755 </v>
    <v>       0.00033601       0.00000000       0.31428347 </v>
    <v>       0.00075147       0.50000000       0.31385494 </v>
    <v>       0.49966399       0.00000000       0.31428347 </v>
    <v>       0.49924853       0.50000000       0.31385494 </v>
    <v>       0.25000000       0.24986490       0.36180459 </v>
    <v>       0.25000000       0.75013510       0.36180459 </v>
    <v>       0.75000000       0.24696720       0.36116428 </v>
    <v>       0.75000000       0.75303280       0.36116428 </v>
    <v>       0.75000000       0.50000000       0.42681954 </v>
    <v>       0.75000000       0.50000000       0.45951123 </v>
   </varray>
  </structure>
  <varray name="forces" >
   <v>       0.01398967       0.00000000       0.44680444 </v>
   <v>       0.02165532       0.00000000       0.44059795 </v>
   <v>      -0.01398967       0.00000000       0.44680444 </v>
   <v>      -0.02165532       0.00000000       0.44059795 </v>
   <v>      -0.00000000       0.01569980      -0.47853660 </v>
   <v>      -0.00000000      -0.01569980      -0.47853660 </v>
   <v>      -0.00000000      -0.00510603      -0.42279994 </v>
   <v>      -0.00000000       0.00510603      -0.42279994 </v>
   <v>      -0.00364452       0.00000000      -0.01961212 </v>
   <v>      -0.00945208       0.00000000      -0.01375389 </v>
   <v>       0.00364452       0.00000000      -0.01961212 </v>
   <v>       0.00945208       0.00000000      -0.01375389 </v>
   <v>      -0.00000000      -0.00535725      -0.00854387 </v>
   <v>      -0.00000000       0.00535725      -0.00854387 </v>
   <v>      -0.00000000      -0.00038747       0.01215134 </v>
   <v>      -0.00000000       0.00038747       0.01215134 </v>
   <v>      -0.01330219       0.00000000       0.01031504 </v>
   <v>       0.00080283       0.00000000      -0.01162389 </v>
   <v>       0.01330219       0.00000000       0.01031504 </v>
   <v>      -0.00080283       0.00000000      -0.01162389 </v>
   <v>      -0.00000000      -0.01139176      -0.00989435 </v>
   <v>      -0.00000000       0.01139176      -0.00989435 </v>
   <v>      -0.00000000      -0.00825183      -0.03442888 </v>
   <v>      -0.00000000       0.00825183      -0.03442888 </v>
   <v>       0.04893138       0.00000000      -0.02075448 </v>
   <v>       0.01037913       0.00000000      -0.01048585 </v>
   <v>      -0.04893138       0.00000000      -0.02075448 </v>
   <v>      -0.01037913       0.00000000      -0.01048585 </v>
   <v>      -0.00000000       0.00589013       0.00333059 </v>
   <v>      -0.00000000      -0.00589013       0.00333059 </v>
   <v>      -0.00000000       0.02910190      -0.01807175 </v>
   <v>      -0.00000000      -0.02910190      -0.01807175 </v>
   <v>      -0.00000000       0.00000000       0.22946364 </v>
   <v>      -0.00000000       0.00000000       0.04114886 </v>
  </varray>
  <varray name="stress" >
   <v>     -30.62423446       0.00000000       0.00000000 </v>
   <v>       0.00000000     -27.31828457       0.00000000 </v>
   <v>       0.00000000       0.00000000      -5.61523567 </v>
  </varray>
  <energy>
   <i name="e_fr_energy">   -130.64008046 </i>
   <i name="e_wo_entrp">   -130.67458406 </i>
   <i name="e_0_energy">   -130.65158166 </i>
  </energy>
  <time name="totalsc">   41.12   41.43</time>
 </calculation>
 <calculation>
  <scstep>
   <time name="dav">    7.81    7.87</time>
   <time name="total">    8.26    8.33</time>
   <energy>
    <i name="alphaZ">    844.48149002 </i>
    <i name="ewald"> 173252.28857023 </i>
    <i name="hartreedc">-216014.42737184 </i>
    <i name="XCdc">   1431.88414127 </i>
    <i name="pawpsdc">  41957.36937773 </i>
    <i name="pawaedc"> -45405.41605839 </i>
    <i name="eentropy">      0.03539355 </i>
    <i name="bandstr">   -720.07939025 </i>
    <i name="atom">  44535.60175172 </i>
    <i name="e_fr_energy">   -118.26209595 </i>
    <i name="e_wo_entrp">   -118.29748950 </i>
    <i name="e_0_energy">   -118.27389380 </i>
   </energy>
  </scstep>
  <scstep>
   <time name="dav">    9.79    9.87</time>
   <time name="total">   10.25   10.33</time>
   <energy>
    <i name="e_fr_energy">   -118.27120486 </i>
    <i name="e_wo_entrp">   -118.30624895 </i>
    <i name="e_0_energy">   -118.28288622 </i>
   </energy>
  </scstep>
  <scstep>
   <time name="dav">    7.92    7.99</time>
   <time name="total">    8.37    8.44</time>
   <energy>
    <i name="e_fr_energy">   -118.27101602 </i>
    <i name="e_wo_entrp">   -118.30657669 </i>
    <i name="e_0_energy">   -118.28286958 </i>
   </energy>
  </scstep>
  <scstep>
   <time name="dav">    7.61    7.67</time>
   <time name="total">    8.06    8.13</time>
   <energy>
    <i name="e_fr_energy">   -118.27077704 </i>
    <i name="e_wo_entrp">   -118.30619041 </i>
    <i name="e_0_energy">   -118.28258150 </i>
   </energy>
  </scstep>
  <scstep>
   <time name="dav">    6.43    6.48</time>
   <time name="total">    6.51    6.56</time>
   <energy>
    <i name="alphaZ">    844.48149002 </i>
    <i name="ewald"> 173252.28857023 </i>
    <i name="hartreedc">-216013.84944010 </i>
    <i name="XCdc">   1431.88396778 </i>
    <i name="pawpsdc">  41963.58057957 </i>
    <i name="pawaedc"> -45411.76897411 </i>
    <i name="eentropy">      0.03517509 </i>
    <i name="bandstr">   -720.52370187 </i>
    <i name="atom">  44535.60175172 </i>
    <i name="e_fr_energy">   -118.27058167 </i>
    <i name="e_wo_entrp">   -118.30575676 </i>
    <i name="e_0_energy">   -118.28230670 </i>
   </energy>
  </scstep>
  <structure>
   <crystal>
    <varray name="basis" >
     <v>       7.26000023       0.00000000       0.00000000 </v>
     <v>       0.00000000       5.13359547       0.00000000 </v>
     <v>       0.00000000       0.00000000      23.98379135 </v>
    </varray>
    <i name="volume">    893.87360752 </i>
    <varray name="rec_basis" >
     <v>       0.13774104       0.00000000       0.00000000 </v>
     <v>       0.00000000       0.19479525       0.00000000 </v>
     <v>       0.00000000       0.00000000       0.04169483 </v>
    </varray>
   </crystal>
   <varray name="positions" >
    <v>       0.00000000       0.00000000       0.00000000 </v>
    <v>       0.00000000       0.50000000       0.00000000 </v>
    <v>       0.50000000       0.00000000       0.00000000 </v>
    <v>       0.50000000       0.50000000       0.00000000 </v>
    <v>       0.25000000       0.25000000       0.05351109 </v>
    <v>       0.25000000       0.75000000       0.05351109 </v>
    <v>       0.75000000       0.25000000       0.05351109 </v>
    <v>       0.75000000       0.75000000       0.05351109 </v>
    <v>       0.00000000       0.00000000       0.10541371 </v>
    <v>       0.00000000       0.50000000       0.10541371 </v>
    <v>       0.50000000       0.00000000       0.10541371 </v>
    <v>       0.50000000       0.50000000       0.10541371 </v>
    <v>       0.25000000       0.25028650       0.15713620 </v>
    <v>       0.25000000       0.74971350       0.15713620 </v>
    <v>       0.75000000       0.25013646       0.15751146 </v>
    <v>       0.75000000       0.74986354       0.15751146 </v>
    <v>      -0.00001503       0.00000000       0.20862764 </v>
    <v>       0.00047589       0.50000000       0.20868151 </v>
    <v>       0.50001503       0.00000000       0.20862764 </v>
    <v>       0.49952411       0.50000000       0.20868151 </v>
    <v>       0.25000000       0.24961735       0.25934888 </v>
    <v>       0.25000000       0.75038265       0.25934888 </v>
    <v>       0.75000000       0.25171041       0.25992395 </v>
    <v>       0.75000000       0.74828959       0.25992395 </v>
    <v>       0.00063354       0.00000000       0.31438320 </v>
    <v>       0.00137015       0.50000000       0.31361081 </v>
    <v>       0.49936646       0.00000000       0.31438320 </v>
    <v>       0.49862985       0.50000000       0.31361081 </v>
    <v>       0.25000000       0.24975551       0.36179245 </v>
    <v>       0.25000000       0.75024449       0.36179245 </v>
    <v>       0.75000000       0.24461032       0.36065096 </v>
    <v>       0.75000000       0.75538968       0.36065096 </v>
    <v>       0.75000000       0.50000000       0.42740504 </v>
    <v>       0.75000000       0.50000000       0.46002694 </v>
   </varray>
  </structure>
  <varray name="forces" >
   <v>       0.01263726       0.00000000       0.45433821 </v>
   <v>       0.02109469       0.00000000       0.44765385 </v>
   <v>      -0.01263726       0.00000000       0.45433821 </v>
   <v>      -0.02109469       0.00000000       0.44765385 </v>
   <v>       0.00000000       0.01536634      -0.47804824 </v>
   <v>       0.00000000      -0.01536634      -0.47804824 </v>
   <v>       0.00000000      -0.00509626      -0.41309696 </v>
   <v>       0.00000000       0.00509626      -0.41309696 </v>
   <v>      -0.00977470       0.00000000      -0.01956963 </v>
   <v>      -0.01670053       0.00000000      -0.01495736 </v>
   <v>       0.00977470       0.00000000      -0.01956963 </v>
   <v>       0.01670053       0.00000000      -0.01495736 </v>
   <v>       0.00000000      -0.01618936      -0.01820498 </v>
   <v>       0.00000000       0.01618936      -0.01820498 </v>
   <v>       0.00000000      -0.00346171      -0.01913790 </v>
   <v>       0.00000000       0.00346171      -0.01913790 </v>
   <v>      -0.02285494       0.00000000       0.01761931 </v>
   <v>      -0.01155073       0.00000000      -0.02895710 </v>
   <v>       0.02285494       0.00000000       0.01761931 </v>
   <v>       0.01155073       0.00000000      -0.02895710 </v>
   <v>       0.00000000      -0.01362999      -0.01102015 </v>
   <v>       0.00000000       0.01362999      -0.01102015 </v>
   <v>       0.00000000      -0.04893600      -0.11973550 </v>
   <v>       0.00000000       0.04893600      -0.11973550 </v>
   <v>       0.07758586       0.00000000      -0.06273241 </v>
   <v>      -0.02010010       0.00000000       0.03425073 </v>
   <v>      -0.07758586       0.00000000      -0.06273241 </v>
   <v>       0.02010010       0.00000000       0.03425073 </v>
   <v>       0.00000000       0.01641934       0.01273362 </v>
   <v>       0.00000000      -0.01641934       0.01273362 </v>
   <v>       0.00000000       0.16934117       0.09346866 </v>
   <v>       0.00000000      -0.16934117       0.09346866 </v>
   <v>       0.00000000       0.00000000       0.21883302 </v>
   <v>       0.00000000       0.00000000       0.03195871 </v>
  </varray>
  <varray name="stress" >
   <v>     -30.25230172       0.00000000       0.00000000 </v>
   <v>       0.00000000     -27.10305129       0.00000000 </v>
   <v>       0.00000000       0.00000000      -5.28614683 </v>
  </varray>
  <energy>
   <i name="e_fr_energy">   -130.64062706 </i>
   <i name="e_wo_entrp">   -130.67580215 </i>
   <i name="e_0_energy">   -130.65235209 </i>
  </energy>
  <time name="totalsc">   56.41   56.86</time>
 </calculation>
 <calculation>
  <scstep>
   <time name="dav">    7.69    7.76</time>
   <time name="total">    8.15    8.22</time>
   <energy>
    <i name="alphaZ">    844.48149002 </i>
    <i name="ewald"> 173181.24161746 </i>
    <i name="hartreedc">-215942.25939064 </i>
    <i name="XCdc">   1431.86302901 </i>
    <i name="pawpsdc">  41965.53798173 </i>
    <i name="pawaedc"> -45413.82261496 </i>
    <i name="eentropy">      0.03511097 </i>
    <i name="bandstr">   -720.94939856 </i>
    <i name="atom">  44535.60175172 </i>
[...]
       <r>    10.4816    -0.0005   232.0000 </r>
       <r>    10.5552    -0.0001   232.0000 </r>
       <r>    10.6288    -0.0000   232.0000 </r>
       <r>    10.7024    -0.0000   232.0000 </r>
       <r>    10.7760    -0.0000   232.0000 </r>
       <r>    10.8496    -0.0000   232.0000 </r>
       <r>    10.9232    -0.0000   232.0000 </r>
       <r>    10.9968    -0.0000   232.0000 </r>
       <r>    11.0704    -0.0000   232.0000 </r>
       <r>    11.1440     0.0000   232.0000 </r>
       <r>    11.2176     0.0000   232.0000 </r>
       <r>    11.2912     0.0000   232.0000 </r>
       <r>    11.3648     0.0000   232.0000 </r>
       <r>    11.4384     0.0000   232.0000 </r>
       <r>    11.5120     0.0000   232.0000 </r>
       <r>    11.5856     0.0000   232.0000 </r>
       <r>    11.6592     0.0000   232.0000 </r>
       <r>    11.7328     0.0000   232.0000 </r>
       <r>    11.8064     0.0000   232.0000 </r>
      </set>
      <set comment="spin 2">
       <r>   -10.2727     0.0000     0.0000 </r>
       <r>   -10.1991     0.0000     0.0000 </r>
       <r>   -10.1255     0.0000     0.0000 </r>
       <r>   -10.0519     0.0000     0.0000 </r>
       <r>    -9.9783     0.0000     0.0000 </r>
       <r>    -9.9047    -0.0000    -0.0000 </r>
       <r>    -9.8311    -0.0000    -0.0000 </r>
       <r>    -9.7575    -0.0000    -0.0000 </r>
       <r>    -9.6839    -0.0000    -0.0000 </r>
       <r>    -9.6103    -0.0000    -0.0000 </r>
       <r>    -9.5367    -0.0000    -0.0000 </r>
       <r>    -9.4631    -0.0000    -0.0000 </r>
       <r>    -9.3895    -0.0000    -0.0000 </r>
       <r>    -9.3159    -0.0000    -0.0000 </r>
       <r>    -9.2423    -0.0000    -0.0000 </r>
       <r>    -9.1687    -0.0000    -0.0000 </r>
       <r>    -9.0951    -0.0000    -0.0000 </r>
       <r>    -9.0215    -0.0000    -0.0000 </r>
       <r>    -8.9479    -0.0000    -0.0000 </r>
       <r>    -8.8743    -0.0001    -0.0000 </r>
       <r>    -8.8007    -0.0008    -0.0001 </r>
       <r>    -8.7271    -0.0036    -0.0003 </r>
       <r>    -8.6535    -0.0117    -0.0012 </r>
       <r>    -8.5800    -0.0231    -0.0029 </r>
       <r>    -8.5064    -0.0141    -0.0039 </r>
       <r>    -8.4328     0.0639     0.0008 </r>
       <r>    -8.3592     0.2264     0.0174 </r>
       <r>    -8.2856     0.3810     0.0455 </r>
       <r>    -8.2120     0.4036     0.0752 </r>
       <r>    -8.1384     0.3430     0.1004 </r>
       <r>    -8.0648     0.4123     0.1308 </r>
       <r>    -7.9912     0.6653     0.1797 </r>
       <r>    -7.9176     0.8462     0.2420 </r>
       <r>    -7.8440     0.7498     0.2972 </r>
       <r>    -7.7704     0.5626     0.3386 </r>
       <r>    -7.6968     0.5776     0.3811 </r>
       <r>    -7.6232     0.7234     0.4344 </r>
       <r>    -7.5496     0.7404     0.4888 </r>
       <r>    -7.4760     0.7456     0.5437 </r>
       <r>    -7.4024     1.1381     0.6275 </r>
       <r>    -7.3288     1.8327     0.7624 </r>
       <r>    -7.2552     2.1466     0.9203 </r>
       <r>    -7.1816     1.7769     1.0511 </r>
       <r>    -7.1080     1.3253     1.1487 </r>
       <r>    -7.0344     1.3842     1.2505 </r>
       <r>    -6.9608     1.6475     1.3718 </r>
       <r>    -6.8872     1.4871     1.4812 </r>
       <r>    -6.8136     0.9492     1.5511 </r>
       <r>    -6.7400     0.5755     1.5934 </r>
       <r>    -6.6664     0.5779     1.6360 </r>
       <r>    -6.5928     0.8304     1.6971 </r>
       <r>    -6.5192     1.4357     1.8027 </r>
       <r>    -6.4456     2.5041     1.9870 </r>
       <r>    -6.3720     3.4286     2.2394 </r>
       <r>    -6.2984     3.3250     2.4841 </r>
       <r>    -6.2249     2.2761     2.6516 </r>
       <r>    -6.1513     1.2417     2.7430 </r>
       <r>    -6.0777     0.7892     2.8011 </r>
       <r>    -6.0041     0.7382     2.8554 </r>
       <r>    -5.9305     0.8340     2.9168 </r>
       <r>    -5.8569     1.1160     2.9989 </r>
       <r>    -5.7833     1.9097     3.1395 </r>
       <r>    -5.7097     3.6457     3.4078 </r>
       <r>    -5.6361     6.0843     3.8555 </r>
       <r>    -5.5625     7.8303     4.4318 </r>
       <r>    -5.4889     7.4856     4.9828 </r>
       <r>    -5.4153     5.2197     5.3669 </r>
       <r>    -5.3417     2.6250     5.5601 </r>
       <r>    -5.2681     1.2682     5.6534 </r>
       <r>    -5.1945     1.7718     5.7838 </r>
       <r>    -5.1209     3.7816     6.0621 </r>
       <r>    -5.0473     6.1103     6.5118 </r>
       <r>    -4.9737     7.3057     7.0495 </r>
       <r>    -4.9001     6.7598     7.5470 </r>
       <r>    -4.8265     4.9947     7.9146 </r>
       <r>    -4.7529     2.8428     8.1238 </r>
       <r>    -4.6793     0.9912     8.1968 </r>
       <r>    -4.6057     0.1346     8.2067 </r>
       <r>    -4.5321     0.8513     8.2693 </r>
       <r>    -4.4585     3.1709     8.5027 </r>
       <r>    -4.3849     6.2982     8.9662 </r>
       <r>    -4.3113     8.8371     9.6166 </r>
       <r>    -4.2377     9.7449    10.3338 </r>
       <r>    -4.1641     9.4326    11.0280 </r>
       <r>    -4.0905     9.5870    11.7336 </r>
       <r>    -4.0169    11.3996    12.5726 </r>
       <r>    -3.9433    14.1376    13.6131 </r>
       <r>    -3.8697    16.1025    14.7982 </r>
       <r>    -3.7962    16.9703    16.0471 </r>
       <r>    -3.7226    17.9617    17.3690 </r>
       <r>    -3.6490    19.4930    18.8037 </r>
       <r>    -3.5754    20.6583    20.3241 </r>
       <r>    -3.5018    21.6307    21.9160 </r>
       <r>    -3.4282    24.2798    23.7029 </r>
       <r>    -3.3546    29.1530    25.8485 </r>
       <r>    -3.2810    33.5819    28.3200 </r>
       <r>    -3.2074    34.5953    30.8661 </r>
       <r>    -3.1338    32.6326    33.2678 </r>
       <r>    -3.0602    30.3433    35.5010 </r>
       <r>    -2.9866    28.8475    37.6240 </r>
       <r>    -2.9130    27.7482    39.6662 </r>
       <r>    -2.8394    27.8733    41.7176 </r>
       <r>    -2.7658    31.0070    43.9996 </r>
       <r>    -2.6922    36.8632    46.7127 </r>
       <r>    -2.6186    42.5317    49.8429 </r>
       <r>    -2.5450    45.4434    53.1873 </r>
       <r>    -2.4714    45.8121    56.5590 </r>
       <r>    -2.3978    46.0513    59.9482 </r>
       <r>    -2.3242    48.4771    63.5160 </r>
       <r>    -2.2506    53.5090    67.4541 </r>
       <r>    -2.1770    59.4652    71.8305 </r>
       <r>    -2.1034    63.6057    76.5117 </r>
       <r>    -2.0298    63.7670    81.2048 </r>
       <r>    -1.9562    59.9848    85.6195 </r>
       <r>    -1.8826    54.4661    89.6280 </r>
       <r>    -1.8090    49.6322    93.2808 </r>
       <r>    -1.7354    46.6688    96.7154 </r>
       <r>    -1.6618    45.9252   100.0954 </r>
       <r>    -1.5882    47.7812   103.6119 </r>
       <r>    -1.5146    52.0057   107.4394 </r>
       <r>    -1.4411    56.4937   111.5972 </r>
       <r>    -1.3675    58.8955   115.9317 </r>
       <r>    -1.2939    59.7483   120.3290 </r>
       <r>    -1.2203    61.2765   124.8387 </r>
       <r>    -1.1467    63.4962   129.5119 </r>
       <r>    -1.0731    65.1443   134.3063 </r>
       <r>    -0.9995    67.7583   139.2931 </r>
       <r>    -0.9259    74.1029   144.7468 </r>
       <r>    -0.8523    82.0996   150.7891 </r>
       <r>    -0.7787    84.1670   156.9835 </r>
       <r>    -0.7051    74.1293   162.4392 </r>
       <r>    -0.6315    53.7264   166.3933 </r>
       <r>    -0.5579    31.5190   168.7130 </r>
       <r>    -0.4843    15.6159   169.8623 </r>
       <r>    -0.4107     8.2313   170.4681 </r>
       <r>    -0.3371     6.5670   170.9514 </r>
       <r>    -0.2635     6.6772   171.4428 </r>
       <r>    -0.1899     6.0122   171.8853 </r>
       <r>    -0.1163     4.0482   172.1833 </r>
       <r>    -0.0427     1.7517   172.3122 </r>
       <r>     0.0309     0.4351   172.3442 </r>
       <r>     0.1045     0.7747   172.4012 </r>
       <r>     0.1781     2.4834   172.5840 </r>
       <r>     0.2517     4.6037   172.9228 </r>
       <r>     0.3253     6.2534   173.3830 </r>
       <r>     0.3989     7.3306   173.9225 </r>
       <r>     0.4725     8.3630   174.5380 </r>
       <r>     0.5461     9.4333   175.2323 </r>
       <r>     0.6197     9.6590   175.9432 </r>
       <r>     0.6933     8.3696   176.5591 </r>
       <r>     0.7669     6.2935   177.0223 </r>
       <r>     0.8405     4.7639   177.3729 </r>
       <r>     0.9141     4.3132   177.6904 </r>
       <r>     0.9876     4.6605   178.0334 </r>
       <r>     1.0612     5.3479   178.4270 </r>
       <r>     1.1348     5.7843   178.8527 </r>
       <r>     1.2084     5.2861   179.2417 </r>
       <r>     1.2820     3.7812   179.5200 </r>
       <r>     1.3556     2.2539   179.6859 </r>
       <r>     1.4292     2.0160   179.8342 </r>
       <r>     1.5028     3.3614   180.0816 </r>
       <r>     1.5764     5.0267   180.4516 </r>
       <r>     1.6500     5.4846   180.8552 </r>
       <r>     1.7236     4.8325   181.2109 </r>
       <r>     1.7972     4.5244   181.5439 </r>
       <r>     1.8708     5.1937   181.9261 </r>
       <r>     1.9444     5.9865   182.3667 </r>
       <r>     2.0180     6.1640   182.8203 </r>
       <r>     2.0916     5.9975   183.2617 </r>
       <r>     2.1652     5.8725   183.6939 </r>
       <r>     2.2388     5.6900   184.1127 </r>
       <r>     2.3124     5.3744   184.5082 </r>
       <r>     2.3860     5.1983   184.8908 </r>
       <r>     2.4596     5.3699   185.2860 </r>
       <r>     2.5332     5.5749   185.6963 </r>
       <r>     2.6068     5.2205   186.0805 </r>
       <r>     2.6804     4.2023   186.3898 </r>
       <r>     2.7540     3.1426   186.6211 </r>
       <r>     2.8276     2.8651   186.8320 </r>
       <r>     2.9012     3.8293   187.1138 </r>
       <r>     2.9748     5.6434   187.5291 </r>
       <r>     3.0484     6.8882   188.0361 </r>
       <r>     3.1220     6.2366   188.4951 </r>
       <r>     3.1956     4.0994   188.7968 </r>
       <r>     3.2692     2.3469   188.9695 </r>
       <r>     3.3427     2.2319   189.1338 </r>
       <r>     3.4163     3.3491   189.3802 </r>
       <r>     3.4899     4.5520   189.7153 </r>
       <r>     3.5635     5.0927   190.0901 </r>
       <r>     3.6371     4.9525   190.4545 </r>
       <r>     3.7107     4.6461   190.7965 </r>
       <r>     3.7843     4.6455   191.1384 </r>
       <r>     3.8579     4.9124   191.4999 </r>
       <r>     3.9315     5.1124   191.8762 </r>
       <r>     4.0051     5.0097   192.2449 </r>
       <r>     4.0787     4.5799   192.5819 </r>
       <r>     4.1523     4.0045   192.8767 </r>
       <r>     4.2259     3.5769   193.1399 </r>
       <r>     4.2995     3.5541   193.4015 </r>
       <r>     4.3731     3.9050   193.6889 </r>
       <r>     4.4467     4.1047   193.9910 </r>
       <r>     4.5203     3.7134   194.2643 </r>
       <r>     4.5939     3.3148   194.5082 </r>
       <r>     4.6675     4.0429   194.8058 </r>
       <r>     4.7411     5.8950   195.2396 </r>
       <r>     4.8147     7.3359   195.7795 </r>
       <r>     4.8883     7.0527   196.2986 </r>
       <r>     4.9619     5.4445   196.6993 </r>
       <r>     5.0355     3.8464   196.9824 </r>
       <r>     5.1091     3.0631   197.2078 </r>
       <r>     5.1827     3.2236   197.4450 </r>
       <r>     5.2563     4.1553   197.7508 </r>
       <r>     5.3299     5.3257   198.1428 </r>
       <r>     5.4035     6.1137   198.5928 </r>
       <r>     5.4771     6.4821   199.0698 </r>
       <r>     5.5507     6.8733   199.5757 </r>
       <r>     5.6243     7.4544   200.1243 </r>
       <r>     5.6978     8.0057   200.7135 </r>
       <r>     5.7714     8.3906   201.3310 </r>
       <r>     5.8450     8.6647   201.9687 </r>
       <r>     5.9186     8.7592   202.6134 </r>
       <r>     5.9922     8.3734   203.2296 </r>
       <r>     6.0658     7.4560   203.7783 </r>
       <r>     6.1394     6.6082   204.2647 </r>
       <r>     6.2130     6.5028   204.7433 </r>
       <r>     6.2866     6.9906   205.2578 </r>
       <r>     6.3602     7.2556   205.7917 </r>
       <r>     6.4338     6.8560   206.2963 </r>
       <r>     6.5074     6.2548   206.7567 </r>
       <r>     6.5810     6.2090   207.2136 </r>
       <r>     6.6546     6.9275   207.7235 </r>
       <r>     6.7282     8.0103   208.3130 </r>
       <r>     6.8018     8.8458   208.9640 </r>
       <r>     6.8754     8.8016   209.6118 </r>
       <r>     6.9490     7.5651   210.1686 </r>
       <r>     7.0226     5.7502   210.5918 </r>
       <r>     7.0962     4.7818   210.9437 </r>
       <r>     7.1698     5.6432   211.3590 </r>
       <r>     7.2434     7.7476   211.9292 </r>
       <r>     7.3170     9.4650   212.6258 </r>
       <r>     7.3906     9.7168   213.3409 </r>
       <r>     7.4642     8.6041   213.9742 </r>
       <r>     7.5378     6.8599   214.4790 </r>
       <r>     7.6114     5.4766   214.8821 </r>
       <r>     7.6850     5.4378   215.2823 </r>
       <r>     7.7586     6.9548   215.7942 </r>
       <r>     7.8322     9.2164   216.4724 </r>
       <r>     7.9058    11.0911   217.2887 </r>
       <r>     7.9794    11.6988   218.1497 </r>
       <r>     8.0530    10.8038   218.9448 </r>
       <r>     8.1265     9.1351   219.6172 </r>
       <r>     8.2001     7.7816   220.1899 </r>
       <r>     8.2737     7.1796   220.7183 </r>
       <r>     8.3473     6.9656   221.2309 </r>
       <r>     8.4209     6.5914   221.7160 </r>
       <r>     8.4945     6.0016   222.1577 </r>
       <r>     8.5681     5.7425   222.5803 </r>
       <r>     8.6417     6.2924   223.0434 </r>
       <r>     8.7153     7.5876   223.6019 </r>
       <r>     8.7889     9.3708   224.2915 </r>
       <r>     8.8625    11.2613   225.1203 </r>
       <r>     8.9361    12.3423   226.0287 </r>
       <r>     9.0097    11.7456   226.8931 </r>
       <r>     9.0833     9.7020   227.6071 </r>
       <r>     9.1569     7.2663   228.1419 </r>
       <r>     9.2305     5.4687   228.5444 </r>
       <r>     9.3041     5.0386   228.9152 </r>
       <r>     9.3777     5.9996   229.3568 </r>
       <r>     9.4513     7.3610   229.8985 </r>
       <r>     9.5249     7.8889   230.4791 </r>
       <r>     9.5985     7.1008   231.0017 </r>
       <r>     9.6721     5.4202   231.4006 </r>
       <r>     9.7457     3.6879   231.6721 </r>
       <r>     9.8193     2.4166   231.8499 </r>
       <r>     9.8929     1.4899   231.9596 </r>
       <r>     9.9665     0.6956   232.0107 </r>
       <r>    10.0401     0.1275   232.0201 </r>
       <r>    10.1137    -0.1025   232.0126 </r>
       <r>    10.1873    -0.1037   232.0050 </r>
       <r>    10.2609    -0.0488   232.0014 </r>
       <r>    10.3345    -0.0148   232.0003 </r>
       <r>    10.4081    -0.0031   232.0000 </r>
       <r>    10.4816    -0.0005   232.0000 </r>
       <r>    10.5552    -0.0001   232.0000 </r>
       <r>    10.6288    -0.0000   232.0000 </r>
       <r>    10.7024    -0.0000   232.0000 </r>
       <r>    10.7760    -0.0000   232.0000 </r>
       <r>    10.8496    -0.0000   232.0000 </r>
       <r>    10.9232    -0.0000   232.0000 </r>
       <r>    10.9968    -0.0000   232.0000 </r>
       <r>    11.0704    -0.0000   232.0000 </r>
       <r>    11.1440     0.0000   232.0000 </r>
       <r>    11.2176     0.0000   232.0000 </r>
       <r>    11.2912     0.0000   232.0000 </r>
       <r>    11.3648     0.0000   232.0000 </r>
       <r>    11.4384     0.0000   232.0000 </r>
       <r>    11.5120     0.0000   232.0000 </r>
       <r>    11.5856     0.0000   232.0000 </r>
       <r>    11.6592     0.0000   232.0000 </r>
       <r>    11.7328     0.0000   232.0000 </r>
       <r>    11.8064     0.0000   232.0000 </r>
      </set>
     </set>
    </array>
   </total>
  </dos>
 </calculation>
 <structure name="finalpos" >
  <crystal>
   <varray name="basis" >
    <v>       7.26000023       0.00000000       0.00000000 </v>
    <v>       0.00000000       5.13359547       0.00000000 </v>
    <v>       0.00000000       0.00000000      23.98379135 </v>
   </varray>
   <i name="volume">    893.87360752 </i>
   <varray name="rec_basis" >
    <v>       0.13774104       0.00000000       0.00000000 </v>
    <v>       0.00000000       0.19479525       0.00000000 </v>
    <v>       0.00000000       0.00000000       0.04169483 </v>
   </varray>
  </crystal>
  <varray name="positions" >
   <v>       0.00000000       0.00000000       0.00000000 </v>
   <v>       0.00000000       0.50000000       0.00000000 </v>
   <v>       0.50000000       0.00000000       0.00000000 </v>
   <v>       0.50000000       0.50000000       0.00000000 </v>
   <v>       0.25000000       0.25000000       0.05351109 </v>
   <v>       0.25000000       0.75000000       0.05351109 </v>
   <v>       0.75000000       0.25000000       0.05351109 </v>
   <v>       0.75000000       0.75000000       0.05351109 </v>
   <v>       0.00000000       0.00000000       0.10541371 </v>
   <v>       0.00000000       0.50000000       0.10541371 </v>
   <v>       0.50000000       0.00000000       0.10541371 </v>
   <v>       0.50000000       0.50000000       0.10541371 </v>
   <v>       0.25000000       0.25012061       0.15714600 </v>
   <v>       0.25000000       0.74987939       0.15714600 </v>
   <v>       0.75000000       0.24988015       0.15725940 </v>
   <v>       0.75000000       0.75011985       0.15725940 </v>
   <v>      -0.00014878      -0.00000000       0.20871330 </v>
   <v>       0.00006443       0.50000000       0.20872546 </v>
   <v>       0.50014878      -0.00000000       0.20871330 </v>
   <v>       0.49993557       0.50000000       0.20872546 </v>
   <v>       0.25000000       0.24996919       0.25942021 </v>
   <v>       0.25000000       0.75003081       0.25942021 </v>
   <v>       0.75000000       0.25011828       0.25967643 </v>
   <v>       0.75000000       0.74988172       0.25967643 </v>
   <v>       0.00001440      -0.00000000       0.31426505 </v>
   <v>      -0.00001094       0.50000000       0.31425385 </v>
   <v>       0.49998560      -0.00000000       0.31426505 </v>
   <v>       0.50001094       0.50000000       0.31425385 </v>
   <v>       0.25000000       0.24992450       0.36170497 </v>
   <v>       0.25000000       0.75007550       0.36170497 </v>
   <v>       0.75000000       0.24947285       0.36189143 </v>
   <v>       0.75000000       0.75052715       0.36189143 </v>
   <v>       0.75000000       0.50000000       0.46004359 </v>
   <v>       0.75000000       0.50000000       0.49167284 </v>
  </varray>
  <varray name="selective"  type="logical" >
   <v type="logical" >  F  F  F </v>
   <v type="logical" >  F  F  F </v>
   <v type="logical" >  F  F  F </v>
   <v type="logical" >  F  F  F </v>
   <v type="logical" >  F  F  F </v>
   <v type="logical" >  F  F  F </v>
   <v type="logical" >  F  F  F </v>
   <v type="logical" >  F  F  F </v>
   <v type="logical" >  F  F  F </v>
   <v type="logical" >  F  F  F </v>
   <v type="logical" >  F  F  F </v>
   <v type="logical" >  F  F  F </v>
   <v type="logical" >  T  T  T </v>
   <v type="logical" >  T  T  T </v>
   <v type="logical" >  T  T  T </v>
   <v type="logical" >  T  T  T </v>
   <v type="logical" >  T  T  T </v>
   <v type="logical" >  T  T  T </v>
   <v type="logical" >  T  T  T </v>
   <v type="logical" >  T  T  T </v>
   <v type="logical" >  T  T  T </v>
   <v type="logical" >  T  T  T </v>
   <v type="logical" >  T  T  T </v>
   <v type="logical" >  T  T  T </v>
   <v type="logical" >  T  T  T </v>
   <v type="logical" >  T  T  T </v>
   <v type="logical" >  T  T  T </v>
   <v type="logical" >  T  T  T </v>
   <v type="logical" >  T  T  T </v>
   <v type="logical" >  T  T  T </v>
   <v type="logical" >  T  T  T </v>
   <v type="logical" >  T  T  T </v>
   <v type="logical" >  T  T  T </v>
   <v type="logical" >  T  T  T </v>
  </varray>
  <nose>
   <v>      -3.00000000       0.00000000       0.00010000       0.00010000 </v>
  </nose>
 </structure>
</modeling>
