unknown system                          
           1
     7.260000    0.000000    0.000000
     0.000000    5.133595    0.000000
     0.000000    0.000000   23.983791
   Cu   H 
    32     2
Direct configuration=     1
   0.00000000  0.00000000  0.00000000
   0.00000000  0.50000000  0.00000000
   0.50000000  0.00000000  0.00000000
   0.50000000  0.50000000  0.00000000
   0.25000000  0.25000000  0.05351109
   0.25000000  0.75000000  0.05351109
   0.75000000  0.25000000  0.05351109
   0.75000000  0.75000000  0.05351109
   0.00000000  0.00000000  0.10541371
   0.00000000  0.50000000  0.10541371
   0.50000000  0.00000000  0.10541371
   0.50000000  0.50000000  0.10541371
   0.25000000  0.25000000  0.15715010
   0.25000000  0.75000000  0.15715010
   0.75000000  0.25000000  0.15715010
   0.75000000  0.75000000  0.15715010
   0.00000000  0.00000000  0.20866257
   0.00000000  0.50000000  0.20866257
   0.50000000  0.00000000  0.20866257
   0.50000000  0.50000000  0.20866257
   0.25000000  0.25000000  0.25947965
   0.25000000  0.75000000  0.25947965
   0.75000000  0.25000000  0.25947965
   0.75000000  0.75000000  0.25947965
   0.00000000  0.00000000  0.31415415
   0.00000000  0.50000000  0.31415415
   0.50000000  0.00000000  0.31415415
   0.50000000  0.50000000  0.31415415
   0.25000000  0.25000000  0.36181799
   0.25000000  0.75000000  0.36181799
   0.75000000  0.25000000  0.36181799
   0.75000000  0.75000000  0.36181799
   0.75000000  0.50000000  0.42690792
   0.75000000  0.50000000  0.45801226
Direct configuration=     2
   0.00000000  0.00000000  0.00000000
   0.00000000  0.50000000  0.00000000
   0.50000000  0.00000000  0.00000000
   0.50000000  0.50000000  0.00000000
   0.25000000  0.25000000  0.05351109
   0.25000000  0.75000000  0.05351109
   0.75000000  0.25000000  0.05351109
   0.75000000  0.75000000  0.05351109
   0.00000000  0.00000000  0.10541371
   0.00000000  0.50000000  0.10541371
   0.50000000  0.00000000  0.10541371
   0.50000000  0.50000000  0.10541371
   0.25000000  0.25007071  0.15714445
   0.25000000  0.74992929  0.15714445
   0.75000000  0.25003330  0.15722731
   0.75000000  0.74996670  0.15722731
   0.00000072  0.00000000  0.20864534
   0.00010646  0.50000000  0.20866401
   0.49999928  0.00000000  0.20864534
   0.49989354  0.50000000  0.20866401
   0.25000000  0.24992345  0.25944652
   0.25000000  0.75007655  0.25944652
   0.75000000  0.25042449  0.25959656
   0.75000000  0.74957551  0.25959656
   0.00008091  0.00000000  0.31422190
   0.00029665  0.50000000  0.31403054
   0.49991909  0.00000000  0.31422190
   0.49970335  0.50000000  0.31403054
   0.25000000  0.24994211  0.36181545
   0.25000000  0.75005789  0.36181545
   0.75000000  0.24845619  0.36149833
   0.75000000  0.75154381  0.36149833
   0.75000000  0.50000000  0.42524366
   0.75000000  0.50000000  0.46038216
Direct configuration=     3
   0.00000000  0.00000000  0.00000000
   0.00000000  0.50000000  0.00000000
   0.50000000  0.00000000  0.00000000
   0.50000000  0.50000000  0.00000000
   0.25000000  0.25000000  0.05351109
   0.25000000  0.75000000  0.05351109
   0.75000000  0.25000000  0.05351109
   0.75000000  0.75000000  0.05351109
   0.00000000  0.00000000  0.10541371
   0.00000000  0.50000000  0.10541371
   0.50000000  0.00000000  0.10541371
   0.50000000  0.50000000  0.10541371
   0.25000000  0.25002907  0.15714778
   0.25000000  0.74997093  0.15714778
   0.75000000  0.25001369  0.15718184
   0.75000000  0.74998631  0.15718184
   0.00000030  0.00000000  0.20865549
   0.00004376  0.50000000  0.20866316
   0.49999970  0.00000000  0.20865549
   0.49995624  0.50000000  0.20866316
   0.25000000  0.24996853  0.25946603
   0.25000000  0.75003147  0.25946603
   0.75000000  0.25017450  0.25952771
   0.75000000  0.74982550  0.25952771
   0.00003326  0.00000000  0.31418200
   0.00012195  0.50000000  0.31410334
   0.49996674  0.00000000  0.31418200
   0.49987805  0.50000000  0.31410334
   0.25000000  0.24997620  0.36181695
   0.25000000  0.75002380  0.36181695
   0.75000000  0.24936537  0.36168658
   0.75000000  0.75063463  0.36168658
   0.75000000  0.50000000  0.42622378
   0.75000000  0.50000000  0.45898648
Direct configuration=     4
   0.00000000  0.00000000  0.00000000
   0.00000000  0.50000000  0.00000000
   0.50000000  0.00000000  0.00000000
   0.50000000  0.50000000  0.00000000
   0.25000000  0.25000000  0.05351109
   0.25000000  0.75000000  0.05351109
   0.75000000  0.25000000  0.05351109
   0.75000000  0.75000000  0.05351109
   0.00000000  0.00000000  0.10541371
   0.00000000  0.50000000  0.10541371
   0.50000000  0.00000000  0.10541371
   0.50000000  0.50000000  0.10541371
   0.25000000  0.25009510  0.15714481
   0.25000000  0.74990490  0.15714481
   0.75000000  0.25004518  0.15726639
   0.75000000  0.74995482  0.15726639
  -0.00000363  0.00000000  0.20864834
   0.00015461  0.50000000  0.20866787
   0.50000363  0.00000000  0.20864834
   0.49984539  0.50000000  0.20866787
   0.25000000  0.24987845  0.25943598
   0.25000000  0.75012155  0.25943598
   0.75000000  0.25056848  0.25962935
   0.75000000  0.74943152  0.25962935
   0.00018724  0.00000000  0.31423361
   0.00044213  0.50000000  0.31397700
   0.49981276  0.00000000  0.31423361
   0.49955787  0.50000000  0.31397700
   0.25000000  0.24991959  0.36181066
   0.25000000  0.75008041  0.36181066
   0.75000000  0.24814565  0.36142094
   0.75000000  0.75185435  0.36142094
   0.75000000  0.50000000  0.42652678
   0.75000000  0.50000000  0.45925337
Direct configuration=     5
   0.00000000  0.00000000  0.00000000
   0.00000000  0.50000000  0.00000000
   0.50000000  0.00000000  0.00000000
   0.50000000  0.50000000  0.00000000
   0.25000000  0.25000000  0.05351109
   0.25000000  0.75000000  0.05351109
   0.75000000  0.25000000  0.05351109
   0.75000000  0.75000000  0.05351109
   0.00000000  0.00000000  0.10541371
   0.00000000  0.50000000  0.10541371
   0.50000000  0.00000000  0.10541371
   0.50000000  0.50000000  0.10541371
   0.25000000  0.25015890  0.15714194
   0.25000000  0.74984110  0.15714194
   0.75000000  0.25007561  0.15734808
   0.75000000  0.74992439  0.15734808
  -0.00000743  0.00000000  0.20864144
   0.00026170  0.50000000  0.20867242
   0.50000743  0.00000000  0.20864144
   0.49973830  0.50000000  0.20867242
   0.25000000  0.24979142  0.25940694
   0.25000000  0.75020858  0.25940694
   0.75000000  0.25094912  0.25972755
   0.75000000  0.74905088  0.25972755
   0.00033601  0.00000000  0.31428347
   0.00075147  0.50000000  0.31385494
   0.49966399  0.00000000  0.31428347
   0.49924853  0.50000000  0.31385494
   0.25000000  0.24986490  0.36180459
   0.25000000  0.75013510  0.36180459
   0.75000000  0.24696720  0.36116428
   0.75000000  0.75303280  0.36116428
   0.75000000  0.50000000  0.42681954
   0.75000000  0.50000000  0.45951123
Direct configuration=     6
   0.00000000  0.00000000  0.00000000
   0.00000000  0.50000000  0.00000000
   0.50000000  0.00000000  0.00000000
   0.50000000  0.50000000  0.00000000
   0.25000000  0.25000000  0.05351109
   0.25000000  0.75000000  0.05351109
   0.75000000  0.25000000  0.05351109
   0.75000000  0.75000000  0.05351109
   0.00000000  0.00000000  0.10541371
   0.00000000  0.50000000  0.10541371
   0.50000000  0.00000000  0.10541371
   0.50000000  0.50000000  0.10541371
   0.25000000  0.25028650  0.15713620
   0.25000000  0.74971350  0.15713620
   0.75000000  0.25013646  0.15751146
   0.75000000  0.74986354  0.15751146
  -0.00001503  0.00000000  0.20862764
   0.00047589  0.50000000  0.20868151
   0.50001503  0.00000000  0.20862764
   0.49952411  0.50000000  0.20868151
   0.25000000  0.24961735  0.25934888
   0.25000000  0.75038265  0.25934888
   0.75000000  0.25171041  0.25992395
   0.75000000  0.74828959  0.25992395
   0.00063354  0.00000000  0.31438320
   0.00137015  0.50000000  0.31361081
   0.49936646  0.00000000  0.31438320
   0.49862985  0.50000000  0.31361081
   0.25000000  0.24975551  0.36179245
   0.25000000  0.75024449  0.36179245
   0.75000000  0.24461032  0.36065096
   0.75000000  0.75538968  0.36065096
   0.75000000  0.50000000  0.42740504
   0.75000000  0.50000000  0.46002694
Direct configuration=     7
   0.00000000  0.00000000  0.00000000
   0.00000000  0.50000000  0.00000000
   0.50000000  0.00000000  0.00000000
   0.50000000  0.50000000  0.00000000
   0.25000000  0.25000000  0.05351109
   0.25000000  0.75000000  0.05351109
   0.75000000  0.25000000  0.05351109
   0.75000000  0.75000000  0.05351109
   0.00000000  0.00000000  0.10541371
   0.00000000  0.50000000  0.10541371
   0.50000000  0.00000000  0.10541371
   0.50000000  0.50000000  0.10541371
   0.25000000  0.25021061  0.15713961
   0.25000000  0.74978939  0.15713961
   0.75000000  0.25010027  0.15741429
   0.75000000  0.74989973  0.15741429
  -0.00001051  0.00000000  0.20863585
   0.00034851  0.50000000  0.20867610
   0.50001051  0.00000000  0.20863585
   0.49965149  0.50000000  0.20867610
   0.25000000  0.24972088  0.25938341
   0.25000000  0.75027913  0.25938341
   0.75000000  0.25125764  0.25980714
   0.75000000  0.74874236  0.25980714
   0.00045659  0.00000000  0.31432389
   0.00100220  0.50000000  0.31375600
   0.49954341  0.00000000  0.31432389
   0.49899780  0.50000000  0.31375600
   0.25000000  0.24982057  0.36179967
   0.25000000  0.75017943  0.36179967
   0.75000000  0.24601205  0.36095625
   0.75000000  0.75398795  0.36095625
   0.75000000  0.50000000  0.42705682
   0.75000000  0.50000000  0.45972022
Direct configuration=     8
   0.00000000  0.00000000  0.00000000
   0.00000000  0.50000000  0.00000000
   0.50000000  0.00000000  0.00000000
   0.50000000  0.50000000  0.00000000
   0.25000000  0.25000000  0.05351109
   0.25000000  0.75000000  0.05351109
   0.75000000  0.25000000  0.05351109
   0.75000000  0.75000000  0.05351109
   0.00000000  0.00000000  0.10541371
   0.00000000  0.50000000  0.10541371
   0.50000000  0.00000000  0.10541371
   0.50000000  0.50000000  0.10541371
   0.25000000  0.25023348  0.15713858
   0.25000000  0.74976652  0.15713858
   0.75000000  0.25011117  0.15744357
   0.75000000  0.74988883  0.15744357
  -0.00001187  0.00000000  0.20863337
   0.00038689  0.50000000  0.20867773
   0.50001187  0.00000000  0.20863337
   0.49961311  0.50000000  0.20867773
   0.25000000  0.24968968  0.25937300
   0.25000000  0.75031032  0.25937300
   0.75000000  0.25139408  0.25984234
   0.75000000  0.74860592  0.25984234
   0.00050991  0.00000000  0.31434176
   0.00111307  0.50000000  0.31371225
   0.49949009  0.00000000  0.31434176
   0.49888693  0.50000000  0.31371225
   0.25000000  0.24980097  0.36179749
   0.25000000  0.75019903  0.36179749
   0.75000000  0.24558967  0.36086426
   0.75000000  0.75441033  0.36086426
   0.75000000  0.50000000  0.42716175
   0.75000000  0.50000000  0.45981265
Direct configuration=     9
   0.00000000  0.00000000  0.00000000
   0.00000000  0.50000000  0.00000000
   0.50000000  0.00000000  0.00000000
   0.50000000  0.50000000  0.00000000
   0.25000000  0.25000000  0.05351109
   0.25000000  0.75000000  0.05351109
   0.75000000  0.25000000  0.05351109
   0.75000000  0.75000000  0.05351109
   0.00000000  0.00000000  0.10541371
   0.00000000  0.50000000  0.10541371
   0.50000000  0.00000000  0.10541371
   0.50000000  0.50000000  0.10541371
   0.25000000  0.25016291  0.15710300
   0.25000000  0.74983709  0.15710300
   0.75000000  0.25011419  0.15750478
   0.75000000  0.74988581  0.15750478
  -0.00016566  0.00000000  0.20866274
   0.00043015  0.50000000  0.20863174
   0.50016566  0.00000000  0.20866274
   0.49956985  0.50000000  0.20863174
   0.25000000  0.24947367  0.25932367
   0.25000000  0.75052633  0.25932367
   0.75000000  0.25137194  0.25972915
   0.75000000  0.74862806  0.25972915
   0.00114092  0.00000000  0.31428233
   0.00130874  0.50000000  0.31363894
   0.49885908  0.00000000  0.31428233
   0.49869126  0.50000000  0.31363894
   0.25000000  0.24988011  0.36181907
   0.25000000  0.75011989  0.36181907
   0.75000000  0.24576263  0.36074251
   0.75000000  0.75423737  0.36074251
   0.75000000  0.50000000  0.42792890
   0.75000000  0.50000000  0.46010439
Direct configuration=    10
   0.00000000  0.00000000  0.00000000
   0.00000000  0.50000000  0.00000000
   0.50000000  0.00000000  0.00000000
   0.50000000  0.50000000  0.00000000
   0.25000000  0.25000000  0.05351109
   0.25000000  0.75000000  0.05351109
   0.75000000  0.25000000  0.05351109
   0.75000000  0.75000000  0.05351109
   0.00000000  0.00000000  0.10541371
   0.00000000  0.50000000  0.10541371
   0.50000000  0.00000000  0.10541371
   0.50000000  0.50000000  0.10541371
   0.25000000  0.25013065  0.15708674
   0.25000000  0.74986935  0.15708674
   0.75000000  0.25011556  0.15753276
   0.75000000  0.74988444  0.15753276
  -0.00023598  0.00000000  0.20867617
   0.00044993  0.50000000  0.20861071
   0.50023598  0.00000000  0.20867617
   0.49955007  0.50000000  0.20861071
   0.25000000  0.24937489  0.25930112
   0.25000000  0.75062511  0.25930112
   0.75000000  0.25136182  0.25967739
   0.75000000  0.74863818  0.25967739
   0.00142944  0.00000000  0.31425515
   0.00139821  0.50000000  0.31360542
   0.49857056  0.00000000  0.31425515
   0.49860179  0.50000000  0.31360542
   0.25000000  0.24991630  0.36182893
   0.25000000  0.75008370  0.36182893
   0.75000000  0.24584171  0.36068684
   0.75000000  0.75415829  0.36068684
   0.75000000  0.50000000  0.42827968
   0.75000000  0.50000000  0.46023779
Direct configuration=    11
   0.00000000  0.00000000  0.00000000
   0.00000000  0.50000000  0.00000000
   0.50000000  0.00000000  0.00000000
   0.50000000  0.50000000  0.00000000
   0.25000000  0.25000000  0.05351109
   0.25000000  0.75000000  0.05351109
   0.75000000  0.25000000  0.05351109
   0.75000000  0.75000000  0.05351109
   0.00000000  0.00000000  0.10541371
   0.00000000  0.50000000  0.10541371
   0.50000000  0.00000000  0.10541371
   0.50000000  0.50000000  0.10541371
   0.25000000  0.25009252  0.15707269
   0.25000000  0.74990748  0.15707269
   0.75000000  0.25011425  0.15754160
   0.75000000  0.74988575  0.15754160
  -0.00028772  0.00000000  0.20868443
   0.00046838  0.50000000  0.20859032
   0.50028772  0.00000000  0.20868443
   0.49953162  0.50000000  0.20859032
   0.25000000  0.24931460  0.25927970
   0.25000000  0.75068540  0.25927970
   0.75000000  0.25131501  0.25962636
   0.75000000  0.74868499  0.25962636
   0.00165703  0.00000000  0.31422431
   0.00144600  0.50000000  0.31358427
   0.49834297  0.00000000  0.31422431
   0.49855400  0.50000000  0.31358427
   0.25000000  0.24996754  0.36183891
   0.25000000  0.75003246  0.36183891
   0.75000000  0.24601919  0.36064752
   0.75000000  0.75398081  0.36064752
   0.75000000  0.50000000  0.42848684
   0.75000000  0.50000000  0.46049688
Direct configuration=    12
   0.00000000  0.00000000  0.00000000
   0.00000000  0.50000000  0.00000000
   0.50000000  0.00000000  0.00000000
   0.50000000  0.50000000  0.00000000
   0.25000000  0.25000000  0.05351109
   0.25000000  0.75000000  0.05351109
   0.75000000  0.25000000  0.05351109
   0.75000000  0.75000000  0.05351109
   0.00000000  0.00000000  0.10541371
   0.00000000  0.50000000  0.10541371
   0.50000000  0.00000000  0.10541371
   0.50000000  0.50000000  0.10541371
   0.25000000  0.24997814  0.15703054
   0.25000000  0.75002186  0.15703054
   0.75000000  0.25011032  0.15756810
   0.75000000  0.74988968  0.15756810
  -0.00044293  0.00000000  0.20870921
   0.00052373  0.50000000  0.20852916
   0.50044293  0.00000000  0.20870921
   0.49947627  0.50000000  0.20852916
   0.25000000  0.24913370  0.25921545
   0.25000000  0.75086630  0.25921545
   0.75000000  0.25117456  0.25947328
   0.75000000  0.74882544  0.25947328
   0.00233980  0.00000000  0.31413180
   0.00158937  0.50000000  0.31352080
   0.49766020  0.00000000  0.31413180
   0.49841063  0.50000000  0.31352080
   0.25000000  0.25012125  0.36186883
   0.25000000  0.74987875  0.36186883
   0.75000000  0.24655165  0.36052956
   0.75000000  0.75344835  0.36052956
   0.75000000  0.50000000  0.42910832
   0.75000000  0.50000000  0.46127414
Direct configuration=    13
   0.00000000  0.00000000  0.00000000
   0.00000000  0.50000000  0.00000000
   0.50000000  0.00000000  0.00000000
   0.50000000  0.50000000  0.00000000
   0.25000000  0.25000000  0.05351109
   0.25000000  0.75000000  0.05351109
   0.75000000  0.25000000  0.05351109
   0.75000000  0.75000000  0.05351109
   0.00000000  0.00000000  0.10541371
   0.00000000  0.50000000  0.10541371
   0.50000000  0.00000000  0.10541371
   0.50000000  0.50000000  0.10541371
   0.25000000  0.24974938  0.15694624
   0.25000000  0.75025062  0.15694624
   0.75000000  0.25010247  0.15762111
   0.75000000  0.74989753  0.15762111
  -0.00075336  0.00000000  0.20875876
   0.00063444  0.50000000  0.20840683
   0.50075336  0.00000000  0.20875876
   0.49936556  0.50000000  0.20840683
   0.25000000  0.24877191  0.25908694
   0.25000000  0.75122809  0.25908694
   0.75000000  0.25089368  0.25916712
   0.75000000  0.74910632  0.25916712
   0.00370535  0.00000000  0.31394678
   0.00187611  0.50000000  0.31339385
   0.49629465  0.00000000  0.31394678
   0.49812389  0.50000000  0.31339385
   0.25000000  0.25042867  0.36192867
   0.25000000  0.74957133  0.36192867
   0.75000000  0.24761655  0.36029365
   0.75000000  0.75238345  0.36029365
   0.75000000  0.50000000  0.43035129
   0.75000000  0.50000000  0.46282865
Direct configuration=    14
   0.00000000  0.00000000  0.00000000
   0.00000000  0.50000000  0.00000000
   0.50000000  0.00000000  0.00000000
   0.50000000  0.50000000  0.00000000
   0.25000000  0.25000000  0.05351109
   0.25000000  0.75000000  0.05351109
   0.75000000  0.25000000  0.05351109
   0.75000000  0.75000000  0.05351109
   0.00000000  0.00000000  0.10541371
   0.00000000  0.50000000  0.10541371
   0.50000000  0.00000000  0.10541371
   0.50000000  0.50000000  0.10541371
   0.25000000  0.24968778  0.15693445
   0.25000000  0.75031222  0.15693445
   0.75000000  0.25010859  0.15753296
   0.75000000  0.74989141  0.15753296
  -0.00067915  0.00000000  0.20871916
   0.00071857  0.50000000  0.20838024
   0.50067915  0.00000000  0.20871916
   0.49928143  0.50000000  0.20838024
   0.25000000  0.24895589  0.25904228
   0.25000000  0.75104411  0.25904228
   0.75000000  0.25079874  0.25916252
   0.75000000  0.74920126  0.25916252
   0.00362629  0.00000000  0.31390924
   0.00184707  0.50000000  0.31336423
   0.49637371  0.00000000  0.31390924
   0.49815293  0.50000000  0.31336423
   0.25000000  0.25060089  0.36195009
   0.25000000  0.74939911  0.36195009
   0.75000000  0.24789072  0.36020970
   0.75000000  0.75210928  0.36020970
   0.75000000  0.50000000  0.43090149
   0.75000000  0.50000000  0.46331908
Direct configuration=    15
   0.00000000  0.00000000  0.00000000
   0.00000000  0.50000000  0.00000000
   0.50000000  0.00000000  0.00000000
   0.50000000  0.50000000  0.00000000
   0.25000000  0.25000000  0.05351109
   0.25000000  0.75000000  0.05351109
   0.75000000  0.25000000  0.05351109
   0.75000000  0.75000000  0.05351109
   0.00000000  0.00000000  0.10541371
   0.00000000  0.50000000  0.10541371
   0.50000000  0.00000000  0.10541371
   0.50000000  0.50000000  0.10541371
   0.25000000  0.24950298  0.15689910
   0.25000000  0.75049702  0.15689910
   0.75000000  0.25012695  0.15726850
   0.75000000  0.74987305  0.15726850
  -0.00045652  0.00000000  0.20860037
   0.00097095  0.50000000  0.20830050
   0.50045652  0.00000000  0.20860037
   0.49902905  0.50000000  0.20830050
   0.25000000  0.24950781  0.25890832
   0.25000000  0.75049219  0.25890832
   0.75000000  0.25051390  0.25914870
   0.75000000  0.74948610  0.25914870
   0.00338911  0.00000000  0.31379665
   0.00175995  0.50000000  0.31327535
   0.49661089  0.00000000  0.31379665
   0.49824005  0.50000000  0.31327535
   0.25000000  0.25111753  0.36201434
   0.25000000  0.74888247  0.36201434
   0.75000000  0.24871322  0.35995787
   0.75000000  0.75128678  0.35995787
   0.75000000  0.50000000  0.43255207
   0.75000000  0.50000000  0.46479037
Direct configuration=    16
   0.00000000  0.00000000  0.00000000
   0.00000000  0.50000000  0.00000000
   0.50000000  0.00000000  0.00000000
   0.50000000  0.50000000  0.00000000
   0.25000000  0.25000000  0.05351109
   0.25000000  0.75000000  0.05351109
   0.75000000  0.25000000  0.05351109
   0.75000000  0.75000000  0.05351109
   0.00000000  0.00000000  0.10541371
   0.00000000  0.50000000  0.10541371
   0.50000000  0.00000000  0.10541371
   0.50000000  0.50000000  0.10541371
   0.25000000  0.24913338  0.15682840
   0.25000000  0.75086662  0.15682840
   0.75000000  0.25016368  0.15673959
   0.75000000  0.74983632  0.15673959
  -0.00001127  0.00000000  0.20836277
   0.00147572  0.50000000  0.20814100
   0.50001127  0.00000000  0.20836277
   0.49852428  0.50000000  0.20814100
   0.25000000  0.25061166  0.25864039
   0.25000000  0.74938834  0.25864039
   0.75000000  0.24994424  0.25912107
   0.75000000  0.75005576  0.25912107
   0.00291476  0.00000000  0.31357147
   0.00158572  0.50000000  0.31309759
   0.49708524  0.00000000  0.31357147
   0.49841428  0.50000000  0.31309759
   0.25000000  0.25215083  0.36214283
   0.25000000  0.74784917  0.36214283
   0.75000000  0.25035822  0.35945420
   0.75000000  0.74964178  0.35945420
   0.75000000  0.50000000  0.43585324
   0.75000000  0.50000000  0.46773294
Direct configuration=    17
   0.00000000  0.00000000  0.00000000
   0.00000000  0.50000000  0.00000000
   0.50000000  0.00000000  0.00000000
   0.50000000  0.50000000  0.00000000
   0.25000000  0.25000000  0.05351109
   0.25000000  0.75000000  0.05351109
   0.75000000  0.25000000  0.05351109
   0.75000000  0.75000000  0.05351109
   0.00000000  0.00000000  0.10541371
   0.00000000  0.50000000  0.10541371
   0.50000000  0.00000000  0.10541371
   0.50000000  0.50000000  0.10541371
   0.25000000  0.24925481  0.15685163
   0.25000000  0.75074519  0.15685163
   0.75000000  0.25015161  0.15691335
   0.75000000  0.74984839  0.15691335
  -0.00015755  0.00000000  0.20844083
   0.00130988  0.50000000  0.20819340
   0.50015755  0.00000000  0.20844083
   0.49869012  0.50000000  0.20819340
   0.25000000  0.25024901  0.25872842
   0.25000000  0.74975099  0.25872842
   0.75000000  0.25013139  0.25913015
   0.75000000  0.74986861  0.25913015
   0.00307060  0.00000000  0.31364545
   0.00164296  0.50000000  0.31315599
   0.49692940  0.00000000  0.31364545
   0.49835704  0.50000000  0.31315599
   0.25000000  0.25181136  0.36210062
   0.25000000  0.74818864  0.36210062
   0.75000000  0.24981778  0.35961967
   0.75000000  0.75018222  0.35961967
   0.75000000  0.50000000  0.43476869
   0.75000000  0.50000000  0.46676620
Direct configuration=    18
   0.00000000  0.00000000  0.00000000
   0.00000000  0.50000000  0.00000000
   0.50000000  0.00000000  0.00000000
   0.50000000  0.50000000  0.00000000
   0.25000000  0.25000000  0.05351109
   0.25000000  0.75000000  0.05351109
   0.75000000  0.25000000  0.05351109
   0.75000000  0.75000000  0.05351109
   0.00000000  0.00000000  0.10541371
   0.00000000  0.50000000  0.10541371
   0.50000000  0.00000000  0.10541371
   0.50000000  0.50000000  0.10541371
   0.25000000  0.24919609  0.15684040
   0.25000000  0.75080391  0.15684040
   0.75000000  0.25015744  0.15682933
   0.75000000  0.74984256  0.15682933
  -0.00008681  0.00000000  0.20840309
   0.00139007  0.50000000  0.20816806
   0.50008681  0.00000000  0.20840309
   0.49860993  0.50000000  0.20816806
   0.25000000  0.25042437  0.25868585
   0.25000000  0.74957563  0.25868585
   0.75000000  0.25004089  0.25912576
   0.75000000  0.74995911  0.25912576
   0.00299524  0.00000000  0.31360967
   0.00161528  0.50000000  0.31312775
   0.49700476  0.00000000  0.31360967
   0.49838472  0.50000000  0.31312775
   0.25000000  0.25197551  0.36212103
   0.25000000  0.74802449  0.36212103
   0.75000000  0.25007911  0.35953966
   0.75000000  0.74992089  0.35953966
   0.75000000  0.50000000  0.43529314
   0.75000000  0.50000000  0.46723367
Direct configuration=    19
   0.00000000  0.00000000  0.00000000
   0.00000000  0.50000000  0.00000000
   0.50000000  0.00000000  0.00000000
   0.50000000  0.50000000  0.00000000
   0.25000000  0.25000000  0.05351109
   0.25000000  0.75000000  0.05351109
   0.75000000  0.25000000  0.05351109
   0.75000000  0.75000000  0.05351109
   0.00000000  0.00000000  0.10541371
   0.00000000  0.50000000  0.10541371
   0.50000000  0.00000000  0.10541371
   0.50000000  0.50000000  0.10541371
   0.25000000  0.24921903  0.15680577
   0.25000000  0.75078097  0.15680577
   0.75000000  0.25018233  0.15677879
   0.75000000  0.74981767  0.15677879
  -0.00004323  0.00000000  0.20834457
   0.00126527  0.50000000  0.20813872
   0.50004323  0.00000000  0.20834457
   0.49873473  0.50000000  0.20813872
   0.25000000  0.25050370  0.25869989
   0.25000000  0.74949630  0.25869989
   0.75000000  0.25001503  0.25904170
   0.75000000  0.74998497  0.25904170
   0.00281489  0.00000000  0.31358383
   0.00163590  0.50000000  0.31309663
   0.49718511  0.00000000  0.31358383
   0.49836410  0.50000000  0.31309663
   0.25000000  0.25197396  0.36208875
   0.25000000  0.74802604  0.36208875
   0.75000000  0.25013087  0.35950665
   0.75000000  0.74986913  0.35950665
   0.75000000  0.50000000  0.43598727
   0.75000000  0.50000000  0.46803790
Direct configuration=    20
   0.00000000  0.00000000  0.00000000
   0.00000000  0.50000000  0.00000000
   0.50000000  0.00000000  0.00000000
   0.50000000  0.50000000  0.00000000
   0.25000000  0.25000000  0.05351109
   0.25000000  0.75000000  0.05351109
   0.75000000  0.25000000  0.05351109
   0.75000000  0.75000000  0.05351109
   0.00000000  0.00000000  0.10541371
   0.00000000  0.50000000  0.10541371
   0.50000000  0.00000000  0.10541371
   0.50000000  0.50000000  0.10541371
   0.25000000  0.24928306  0.15670906
   0.25000000  0.75071694  0.15670906
   0.75000000  0.25025183  0.15663766
   0.75000000  0.74974817  0.15663766
   0.00007845  0.00000000  0.20818117
   0.00091680  0.50000000  0.20805680
   0.49992155  0.00000000  0.20818117
   0.49908320  0.50000000  0.20805680
   0.25000000  0.25072522  0.25873907
   0.25000000  0.74927478  0.25873907
   0.75000000  0.24994283  0.25880697
   0.75000000  0.75005717  0.25880697
   0.00231129  0.00000000  0.31351166
   0.00169348  0.50000000  0.31300976
   0.49768871  0.00000000  0.31351166
   0.49830652  0.50000000  0.31300976
   0.25000000  0.25196963  0.36199863
   0.25000000  0.74803037  0.36199863
   0.75000000  0.25027539  0.35941450
   0.75000000  0.74972461  0.35941450
   0.75000000  0.50000000  0.43792549
   0.75000000  0.50000000  0.47028351
Direct configuration=    21
   0.00000000  0.00000000  0.00000000
   0.00000000  0.50000000  0.00000000
   0.50000000  0.00000000  0.00000000
   0.50000000  0.50000000  0.00000000
   0.25000000  0.25000000  0.05351109
   0.25000000  0.75000000  0.05351109
   0.75000000  0.25000000  0.05351109
   0.75000000  0.75000000  0.05351109
   0.00000000  0.00000000  0.10541371
   0.00000000  0.50000000  0.10541371
   0.50000000  0.00000000  0.10541371
   0.50000000  0.50000000  0.10541371
   0.25000000  0.24930545  0.15667525
   0.25000000  0.75069455  0.15667525
   0.75000000  0.25027613  0.15658832
   0.75000000  0.74972387  0.15658832
   0.00012100  0.00000000  0.20812404
   0.00079495  0.50000000  0.20802815
   0.49987900  0.00000000  0.20812404
   0.49920505  0.50000000  0.20802815
   0.25000000  0.25080267  0.25875278
   0.25000000  0.74919733  0.25875278
   0.75000000  0.24991758  0.25872490
   0.75000000  0.75008242  0.25872490
   0.00213520  0.00000000  0.31348642
   0.00171361  0.50000000  0.31297938
   0.49786480  0.00000000  0.31348642
   0.49828639  0.50000000  0.31297938
   0.25000000  0.25196811  0.36196711
   0.25000000  0.74803189  0.36196711
   0.75000000  0.25032593  0.35938227
   0.75000000  0.74967407  0.35938227
   0.75000000  0.50000000  0.43860322
   0.75000000  0.50000000  0.47106873
Direct configuration=    22
   0.00000000  0.00000000  0.00000000
   0.00000000  0.50000000  0.00000000
   0.50000000  0.00000000  0.00000000
   0.50000000  0.50000000  0.00000000
   0.25000000  0.25000000  0.05351109
   0.25000000  0.75000000  0.05351109
   0.75000000  0.25000000  0.05351109
   0.75000000  0.75000000  0.05351109
   0.00000000  0.00000000  0.10541371
   0.00000000  0.50000000  0.10541371
   0.50000000  0.00000000  0.10541371
   0.50000000  0.50000000  0.10541371
   0.25000000  0.24947188  0.15664553
   0.25000000  0.75052812  0.15664553
   0.75000000  0.25027492  0.15660063
   0.75000000  0.74972508  0.15660063
   0.00014686  0.00000000  0.20807897
   0.00051717  0.50000000  0.20800425
   0.49985314  0.00000000  0.20807897
   0.49948283  0.50000000  0.20800425
   0.25000000  0.25062522  0.25880674
   0.25000000  0.74937478  0.25880674
   0.75000000  0.24997660  0.25857114
   0.75000000  0.75002340  0.25857114
   0.00192934  0.00000000  0.31346465
   0.00173027  0.50000000  0.31295699
   0.49807066  0.00000000  0.31346465
   0.49826973  0.50000000  0.31295699
   0.25000000  0.25166184  0.36186333
   0.25000000  0.74833816  0.36186333
   0.75000000  0.25014817  0.35943440
   0.75000000  0.74985183  0.35943440
   0.75000000  0.50000000  0.43983595
   0.75000000  0.50000000  0.47195047
Direct configuration=    23
   0.00000000  0.00000000  0.00000000
   0.00000000  0.50000000  0.00000000
   0.50000000  0.00000000  0.00000000
   0.50000000  0.50000000  0.00000000
   0.25000000  0.25000000  0.05351109
   0.25000000  0.75000000  0.05351109
   0.75000000  0.25000000  0.05351109
   0.75000000  0.75000000  0.05351109
   0.00000000  0.00000000  0.10541371
   0.00000000  0.50000000  0.10541371
   0.50000000  0.00000000  0.10541371
   0.50000000  0.50000000  0.10541371
   0.25000000  0.24970502  0.15660390
   0.25000000  0.75029498  0.15660390
   0.75000000  0.25027322  0.15661788
   0.75000000  0.74972678  0.15661788
   0.00018310  0.00000000  0.20801584
   0.00012806  0.50000000  0.20797077
   0.49981690  0.00000000  0.20801584