  34  34   0   0
  0.1991679E+02  0.5133596E-09  0.5133596E-09  0.2967047E-08  0.5000000E-15
  1.000000000000000E-004
  CAR 
 unknown system                          
     14.82529814     -9.13684086  301      2.16753334      1.00000000
     -9.137  0.0000E+00  0.0000E+00  0.0000E+00  0.0000E+00
     -9.057  0.0000E+00  0.0000E+00  0.0000E+00  0.0000E+00
     -8.977  0.0000E+00  0.0000E+00  0.0000E+00  0.0000E+00
     -8.897  0.0000E+00  0.0000E+00  0.0000E+00  0.0000E+00
     -8.817  0.0000E+00  0.0000E+00  0.0000E+00  0.0000E+00
     -8.737 -0.5986E-30 -0.5986E-30 -0.4781E-31 -0.4781E-31
     -8.658 -0.2890E-27 -0.2890E-27 -0.2313E-28 -0.2313E-28
     -8.578 -0.1013E-24 -0.1013E-24 -0.8113E-26 -0.8113E-26
     -8.498 -0.2571E-22 -0.2571E-22 -0.2062E-23 -0.2062E-23
     -8.418 -0.4727E-20 -0.4727E-20 -0.3796E-21 -0.3796E-21
     -8.338 -0.6288E-18 -0.6288E-18 -0.5060E-19 -0.5060E-19
     -8.258 -0.5855E-16 -0.5855E-16 -0.4727E-17 -0.4727E-17
     -8.178 -0.4050E-14 -0.4050E-14 -0.3282E-15 -0.3282E-15
     -8.098 -0.2017E-12 -0.2017E-12 -0.1644E-13 -0.1644E-13
     -8.019 -0.7222E-11 -0.7222E-11 -0.5933E-12 -0.5933E-12
     -7.939 -0.1853E-09 -0.1853E-09 -0.1540E-10 -0.1540E-10
     -7.859 -0.3394E-08 -0.3394E-08 -0.2865E-09 -0.2865E-09
     -7.779 -0.4404E-07 -0.4404E-07 -0.3805E-08 -0.3805E-08
     -7.699 -0.4008E-06 -0.4008E-06 -0.3581E-07 -0.3581E-07
     -7.619 -0.2508E-05 -0.2508E-05 -0.2362E-06 -0.2362E-06
     -7.539 -0.1039E-04 -0.1039E-04 -0.1066E-05 -0.1066E-05
     -7.459 -0.2570E-04 -0.2570E-04 -0.3119E-05 -0.3119E-05
     -7.380 -0.2262E-04 -0.2262E-04 -0.4926E-05 -0.4926E-05
     -7.300  0.7227E-04  0.7227E-04  0.8466E-06  0.8466E-06
     -7.220  0.2996E-03  0.2996E-03  0.2478E-04  0.2478E-04
     -7.140  0.5234E-03  0.5234E-03  0.6658E-04  0.6658E-04
     -7.060  0.5192E-03  0.5192E-03  0.1081E-03  0.1081E-03
     -6.980  0.2993E-03  0.2993E-03  0.1320E-03  0.1320E-03
     -6.900  0.1516E-03  0.1516E-03  0.1441E-03  0.1441E-03
     -6.821  0.2680E-03  0.2680E-03  0.1655E-03  0.1655E-03
     -6.741  0.4819E-03  0.4819E-03  0.2040E-03  0.2040E-03
     -6.661  0.4670E-03  0.4670E-03  0.2413E-03  0.2413E-03
     -6.581  0.1660E-03  0.1660E-03  0.2545E-03  0.2545E-03
     -6.501 -0.2707E-04 -0.2707E-04  0.2524E-03  0.2524E-03
     -6.421  0.5022E-03  0.5022E-03  0.2925E-03  0.2925E-03
     -6.341  0.1915E-02  0.1915E-02  0.4454E-03  0.4454E-03
     -6.261  0.3266E-02  0.3266E-02  0.7063E-03  0.7063E-03
     -6.182  0.3299E-02  0.3299E-02  0.9698E-03  0.9698E-03
     -6.102  0.2238E-02  0.2238E-02  0.1149E-02  0.1149E-02
     -6.022  0.1683E-02  0.1683E-02  0.1283E-02  0.1283E-02
     -5.942  0.2419E-02  0.2419E-02  0.1476E-02  0.1476E-02
     -5.862  0.3316E-02  0.3316E-02  0.1741E-02  0.1741E-02
     -5.782  0.2918E-02  0.2918E-02  0.1974E-02  0.1974E-02
     -5.702  0.1427E-02  0.1427E-02  0.2088E-02  0.2088E-02
     -5.622  0.1127E-03  0.1127E-03  0.2097E-02  0.2097E-02
     -5.543 -0.3750E-03 -0.3750E-03  0.2067E-02  0.2067E-02
     -5.463  0.1872E-04  0.1872E-04  0.2069E-02  0.2069E-02
     -5.383  0.1397E-02  0.1397E-02  0.2180E-02  0.2180E-02
     -5.303  0.3235E-02  0.3235E-02  0.2439E-02  0.2439E-02
     -5.223  0.4005E-02  0.4005E-02  0.2758E-02  0.2758E-02
     -5.143  0.2911E-02  0.2911E-02  0.2991E-02  0.2991E-02
     -5.063  0.1050E-02  0.1050E-02  0.3075E-02  0.3075E-02
     -4.983 -0.1528E-03 -0.1528E-03  0.3063E-02  0.3063E-02
     -4.904 -0.3408E-03 -0.3408E-03  0.3035E-02  0.3035E-02
     -4.824  0.3787E-03  0.3787E-03  0.3066E-02  0.3066E-02
     -4.744  0.1827E-02  0.1827E-02  0.3212E-02  0.3212E-02
     -4.664  0.3319E-02  0.3319E-02  0.3477E-02  0.3477E-02
     -4.584  0.4270E-02  0.4270E-02  0.3818E-02  0.3818E-02
     -4.504  0.5056E-02  0.5056E-02  0.4222E-02  0.4222E-02
     -4.424  0.5908E-02  0.5908E-02  0.4693E-02  0.4693E-02
     -4.344  0.5881E-02  0.5881E-02  0.5163E-02  0.5163E-02
     -4.265  0.4368E-02  0.4368E-02  0.5512E-02  0.5512E-02
     -4.185  0.2613E-02  0.2613E-02  0.5721E-02  0.5721E-02
     -4.105  0.2236E-02  0.2236E-02  0.5899E-02  0.5899E-02
     -4.025  0.3165E-02  0.3165E-02  0.6152E-02  0.6152E-02
     -3.945  0.4537E-02  0.4537E-02  0.6515E-02  0.6515E-02
     -3.865  0.6216E-02  0.6216E-02  0.7011E-02  0.7011E-02
     -3.785  0.7817E-02  0.7817E-02  0.7635E-02  0.7635E-02
     -3.705  0.8212E-02  0.8212E-02  0.8291E-02  0.8291E-02
     -3.626  0.7378E-02  0.7378E-02  0.8881E-02  0.8881E-02
     -3.546  0.6871E-02  0.6871E-02  0.9430E-02  0.9430E-02
     -3.466  0.7472E-02  0.7472E-02  0.1003E-01  0.1003E-01
     -3.386  0.7883E-02  0.7883E-02  0.1066E-01  0.1066E-01
     -3.306  0.6878E-02  0.6878E-02  0.1121E-01  0.1121E-01
     -3.226  0.5054E-02  0.5054E-02  0.1161E-01  0.1161E-01
     -3.146  0.3722E-02  0.3722E-02  0.1191E-01  0.1191E-01
     -3.066  0.3807E-02  0.3807E-02  0.1221E-01  0.1221E-01
     -2.987  0.5445E-02  0.5445E-02  0.1265E-01  0.1265E-01
     -2.907  0.7704E-02  0.7704E-02  0.1326E-01  0.1326E-01
     -2.827  0.1008E-01  0.1008E-01  0.1407E-01  0.1407E-01
     -2.747  0.1367E-01  0.1367E-01  0.1516E-01  0.1516E-01
     -2.667  0.1925E-01  0.1925E-01  0.1670E-01  0.1670E-01
     -2.587  0.2571E-01  0.2571E-01  0.1875E-01  0.1875E-01
     -2.507  0.3097E-01  0.3097E-01  0.2122E-01  0.2122E-01
     -2.427  0.3270E-01  0.3270E-01  0.2384E-01  0.2384E-01
     -2.348  0.2976E-01  0.2976E-01  0.2621E-01  0.2621E-01
     -2.268  0.2466E-01  0.2466E-01  0.2818E-01  0.2818E-01
     -2.188  0.2234E-01  0.2234E-01  0.2997E-01  0.2997E-01
     -2.108  0.2551E-01  0.2551E-01  0.3200E-01  0.3200E-01
     -2.028  0.3284E-01  0.3284E-01  0.3463E-01  0.3463E-01
     -1.948  0.4099E-01  0.4099E-01  0.3790E-01  0.3790E-01
     -1.868  0.4655E-01  0.4655E-01  0.4162E-01  0.4162E-01
     -1.788  0.4778E-01  0.4778E-01  0.4544E-01  0.4544E-01
     -1.709  0.4531E-01  0.4531E-01  0.4906E-01  0.4906E-01
     -1.629  0.4077E-01  0.4077E-01  0.5231E-01  0.5231E-01
     -1.549  0.3661E-01  0.3661E-01  0.5524E-01  0.5524E-01
     -1.469  0.3517E-01  0.3517E-01  0.5804E-01  0.5804E-01
     -1.389  0.3693E-01  0.3693E-01  0.6099E-01  0.6099E-01
     -1.309  0.4211E-01  0.4211E-01  0.6436E-01  0.6436E-01
     -1.229  0.5053E-01  0.5053E-01  0.6839E-01  0.6839E-01
     -1.149  0.5836E-01  0.5836E-01  0.7306E-01  0.7306E-01
     -1.070  0.6125E-01  0.6125E-01  0.7795E-01  0.7795E-01
     -0.990  0.6172E-01  0.6172E-01  0.8288E-01  0.8288E-01
     -0.910  0.6639E-01  0.6639E-01  0.8818E-01  0.8818E-01
     -0.830  0.7462E-01  0.7462E-01  0.9414E-01  0.9414E-01
     -0.750  0.7925E-01  0.7925E-01  0.1005E+00  0.1005E+00
     -0.670  0.7783E-01  0.7783E-01  0.1067E+00  0.1067E+00
     -0.590  0.7410E-01  0.7410E-01  0.1126E+00  0.1126E+00
     -0.510  0.7112E-01  0.7112E-01  0.1183E+00  0.1183E+00
     -0.431  0.6927E-01  0.6927E-01  0.1238E+00  0.1238E+00
     -0.351  0.6848E-01  0.6848E-01  0.1293E+00  0.1293E+00
     -0.271  0.6797E-01  0.6797E-01  0.1347E+00  0.1347E+00
     -0.191  0.6586E-01  0.6586E-01  0.1400E+00  0.1400E+00
     -0.111  0.6277E-01  0.6277E-01  0.1450E+00  0.1450E+00
     -0.031  0.6123E-01  0.6123E-01  0.1499E+00  0.1499E+00
      0.049  0.6169E-01  0.6169E-01  0.1548E+00  0.1548E+00
      0.129  0.6578E-01  0.6578E-01  0.1601E+00  0.1601E+00
      0.208  0.7591E-01  0.7591E-01  0.1661E+00  0.1661E+00
      0.288  0.8740E-01  0.8740E-01  0.1731E+00  0.1731E+00
      0.368  0.9253E-01  0.9253E-01  0.1805E+00  0.1805E+00
      0.448  0.9221E-01  0.9221E-01  0.1879E+00  0.1879E+00
      0.528  0.9203E-01  0.9203E-01  0.1952E+00  0.1952E+00
      0.608  0.8902E-01  0.8902E-01  0.2023E+00  0.2023E+00
      0.688  0.7386E-01  0.7386E-01  0.2082E+00  0.2082E+00
      0.768  0.4612E-01  0.4612E-01  0.2119E+00  0.2119E+00
      0.847  0.1817E-01  0.1817E-01  0.2134E+00  0.2134E+00
      0.927  0.1930E-02  0.1930E-02  0.2135E+00  0.2135E+00
      1.007 -0.1743E-02 -0.1743E-02  0.2134E+00  0.2134E+00
      1.087  0.4976E-03  0.4976E-03  0.2134E+00  0.2134E+00
      1.167  0.2881E-02  0.2881E-02  0.2136E+00  0.2136E+00
      1.247  0.3955E-02  0.3955E-02  0.2140E+00  0.2140E+00
      1.327  0.4800E-02  0.4800E-02  0.2143E+00  0.2143E+00
      1.407  0.5938E-02  0.5938E-02  0.2148E+00  0.2148E+00
      1.486  0.6357E-02  0.6357E-02  0.2153E+00  0.2153E+00
      1.566  0.5029E-02  0.5029E-02  0.2157E+00  0.2157E+00
      1.646  0.2900E-02  0.2900E-02  0.2160E+00  0.2160E+00
      1.726  0.2654E-02  0.2654E-02  0.2162E+00  0.2162E+00
      1.806  0.5852E-02  0.5852E-02  0.2166E+00  0.2166E+00
      1.886  0.1087E-01  0.1087E-01  0.2175E+00  0.2175E+00
      1.966  0.1427E-01  0.1427E-01  0.2186E+00  0.2186E+00
      2.045  0.1420E-01  0.1420E-01  0.2198E+00  0.2198E+00
      2.125  0.1235E-01  0.1235E-01  0.2208E+00  0.2208E+00
      2.205  0.1134E-01  0.1134E-01  0.2217E+00  0.2217E+00
      2.285  0.1039E-01  0.1039E-01  0.2225E+00  0.2225E+00
      2.365  0.7299E-02  0.7299E-02  0.2231E+00  0.2231E+00
      2.445  0.3459E-02  0.3459E-02  0.2234E+00  0.2234E+00
      2.525  0.2314E-02  0.2314E-02  0.2235E+00  0.2235E+00
      2.605  0.4433E-02  0.4433E-02  0.2239E+00  0.2239E+00
      2.684  0.7400E-02  0.7400E-02  0.2245E+00  0.2245E+00
      2.764  0.8793E-02  0.8793E-02  0.2252E+00  0.2252E+00
      2.844  0.7776E-02  0.7776E-02  0.2258E+00  0.2258E+00
      2.924  0.5652E-02  0.5652E-02  0.2263E+00  0.2263E+00
      3.004  0.4595E-02  0.4595E-02  0.2266E+00  0.2266E+00
      3.084  0.4640E-02  0.4640E-02  0.2270E+00  0.2270E+00
      3.164  0.4106E-02  0.4106E-02  0.2273E+00  0.2273E+00
      3.244  0.2973E-02  0.2973E-02  0.2276E+00  0.2276E+00
      3.323  0.2932E-02  0.2932E-02  0.2278E+00  0.2278E+00
      3.403  0.4865E-02  0.4865E-02  0.2282E+00  0.2282E+00
      3.483  0.8148E-02  0.8148E-02  0.2288E+00  0.2288E+00
      3.563  0.1132E-01  0.1132E-01  0.2297E+00  0.2297E+00
      3.643  0.1265E-01  0.1265E-01  0.2308E+00  0.2308E+00
      3.723  0.1116E-01  0.1116E-01  0.2316E+00  0.2316E+00
      3.803  0.7754E-02  0.7754E-02  0.2323E+00  0.2323E+00
      3.883  0.4765E-02  0.4765E-02  0.2326E+00  0.2326E+00
      3.962  0.3507E-02  0.3507E-02  0.2329E+00  0.2329E+00
      4.042  0.2967E-02  0.2967E-02  0.2332E+00  0.2332E+00
      4.122  0.1862E-02  0.1862E-02  0.2333E+00  0.2333E+00
      4.202  0.4927E-03  0.4927E-03  0.2334E+00  0.2334E+00
      4.282 -0.3658E-03 -0.3658E-03  0.2333E+00  0.2333E+00
      4.362 -0.5245E-03 -0.5245E-03  0.2333E+00  0.2333E+00
      4.442  0.3602E-03  0.3602E-03  0.2333E+00  0.2333E+00
      4.522  0.2799E-02  0.2799E-02  0.2335E+00  0.2335E+00
      4.601  0.5799E-02  0.5799E-02  0.2340E+00  0.2340E+00
      4.681  0.7050E-02  0.7050E-02  0.2346E+00  0.2346E+00
      4.761  0.6032E-02  0.6032E-02  0.2350E+00  0.2350E+00
      4.841  0.4476E-02  0.4476E-02  0.2354E+00  0.2354E+00
      4.921  0.3239E-02  0.3239E-02  0.2357E+00  0.2357E+00
      5.001  0.1832E-02  0.1832E-02  0.2358E+00  0.2358E+00
      5.081  0.3773E-03  0.3773E-03  0.2358E+00  0.2358E+00
      5.161 -0.3766E-03 -0.3766E-03  0.2358E+00  0.2358E+00
      5.240  0.9969E-04  0.9969E-04  0.2358E+00  0.2358E+00
      5.320  0.2030E-02  0.2030E-02  0.2360E+00  0.2360E+00
      5.400  0.4864E-02  0.4864E-02  0.2364E+00  0.2364E+00
      5.480  0.7146E-02  0.7146E-02  0.2369E+00  0.2369E+00
      5.560  0.8106E-02  0.8106E-02  0.2376E+00  0.2376E+00
      5.640  0.8626E-02  0.8626E-02  0.2383E+00  0.2383E+00
      5.720  0.9261E-02  0.9261E-02  0.2390E+00  0.2390E+00
      5.800  0.8988E-02  0.8988E-02  0.2397E+00  0.2397E+00
      5.879  0.7361E-02  0.7361E-02  0.2403E+00  0.2403E+00
      5.959  0.5411E-02  0.5411E-02  0.2407E+00  0.2407E+00
      6.039  0.3777E-02  0.3777E-02  0.2411E+00  0.2411E+00
      6.119  0.2473E-02  0.2473E-02  0.2412E+00  0.2412E+00
      6.199  0.2281E-02  0.2281E-02  0.2414E+00  0.2414E+00
      6.279  0.4421E-02  0.4421E-02  0.2418E+00  0.2418E+00
      6.359  0.8083E-02  0.8082E-02  0.2424E+00  0.2424E+00
      6.439  0.9983E-02  0.9983E-02  0.2432E+00  0.2432E+00
      6.518  0.8514E-02  0.8514E-02  0.2439E+00  0.2439E+00
      6.598  0.5912E-02  0.5912E-02  0.2444E+00  0.2444E+00
      6.678  0.4494E-02  0.4494E-02  0.2447E+00  0.2447E+00
      6.758  0.4330E-02  0.4330E-02  0.2451E+00  0.2451E+00
      6.838  0.5111E-02  0.5111E-02  0.2455E+00  0.2455E+00
      6.918  0.6406E-02  0.6406E-02  0.2460E+00  0.2460E+00
      6.998  0.7022E-02  0.7022E-02  0.2466E+00  0.2466E+00
      7.078  0.7084E-02  0.7084E-02  0.2471E+00  0.2471E+00
      7.157  0.8140E-02  0.8139E-02  0.2478E+00  0.2478E+00
      7.237  0.1006E-01  0.1006E-01  0.2486E+00  0.2486E+00
      7.317  0.1127E-01  0.1127E-01  0.2495E+00  0.2495E+00
      7.397  0.1107E-01  0.1107E-01  0.2504E+00  0.2504E+00
      7.477  0.9184E-02  0.9184E-02  0.2511E+00  0.2511E+00
      7.557  0.5806E-02  0.5806E-02  0.2516E+00  0.2516E+00
      7.637  0.2941E-02  0.2941E-02  0.2518E+00  0.2518E+00
      7.717  0.2704E-02  0.2704E-02  0.2520E+00  0.2520E+00
      7.796  0.5035E-02  0.5034E-02  0.2524E+00  0.2524E+00
      7.876  0.8279E-02  0.8279E-02  0.2531E+00  0.2531E+00
      7.956  0.1071E-01  0.1071E-01  0.2539E+00  0.2539E+00
      8.036  0.1107E-01  0.1107E-01  0.2548E+00  0.2548E+00
      8.116  0.9073E-02  0.9073E-02  0.2555E+00  0.2555E+00
      8.196  0.6212E-02  0.6212E-02  0.2560E+00  0.2560E+00
      8.276  0.4664E-02  0.4663E-02  0.2564E+00  0.2564E+00
      8.356  0.5062E-02  0.5062E-02  0.2568E+00  0.2568E+00
      8.435  0.6991E-02  0.6991E-02  0.2574E+00  0.2574E+00
      8.515  0.1006E-01  0.1006E-01  0.2582E+00  0.2582E+00
      8.595  0.1264E-01  0.1264E-01  0.2592E+00  0.2592E+00
      8.675  0.1222E-01  0.1222E-01  0.2602E+00  0.2602E+00
      8.755  0.8661E-02  0.8661E-02  0.2609E+00  0.2609E+00
      8.835  0.4844E-02  0.4844E-02  0.2612E+00  0.2612E+00
      8.915  0.3429E-02  0.3429E-02  0.2615E+00  0.2615E+00
      8.995  0.4389E-02  0.4389E-02  0.2619E+00  0.2619E+00
      9.074  0.5584E-02  0.5583E-02  0.2623E+00  0.2623E+00
      9.154  0.5637E-02  0.5637E-02  0.2628E+00  0.2628E+00
      9.234  0.5836E-02  0.5836E-02  0.2632E+00  0.2632E+00
      9.314  0.7905E-02  0.7905E-02  0.2639E+00  0.2639E+00
      9.394  0.1074E-01  0.1074E-01  0.2647E+00  0.2647E+00
      9.474  0.1141E-01  0.1141E-01  0.2656E+00  0.2656E+00
      9.554  0.9007E-02  0.9007E-02  0.2664E+00  0.2664E+00
      9.634  0.5816E-02  0.5816E-02  0.2668E+00  0.2668E+00
      9.713  0.4467E-02  0.4466E-02  0.2672E+00  0.2672E+00
      9.793  0.5071E-02  0.5071E-02  0.2676E+00  0.2676E+00
      9.873  0.6067E-02  0.6067E-02  0.2681E+00  0.2681E+00
      9.953  0.7209E-02  0.7209E-02  0.2686E+00  0.2686E+00
     10.033  0.9496E-02  0.9497E-02  0.2694E+00  0.2694E+00
     10.113  0.1182E-01  0.1182E-01  0.2703E+00  0.2703E+00
     10.193  0.1132E-01  0.1132E-01  0.2712E+00  0.2712E+00
     10.272  0.8126E-02  0.8125E-02  0.2719E+00  0.2719E+00
     10.352  0.5566E-02  0.5566E-02  0.2723E+00  0.2723E+00
     10.432  0.5509E-02  0.5509E-02  0.2728E+00  0.2728E+00
     10.512  0.7127E-02  0.7127E-02  0.2733E+00  0.2733E+00
     10.592  0.9024E-02  0.9024E-02  0.2741E+00  0.2741E+00
     10.672  0.1009E-01  0.1009E-01  0.2749E+00  0.2749E+00
     10.752  0.1003E-01  0.1003E-01  0.2757E+00  0.2757E+00
     10.832  0.1034E-01  0.1034E-01  0.2765E+00  0.2765E+00
     10.911  0.1207E-01  0.1207E-01  0.2775E+00  0.2775E+00
     10.991  0.1315E-01  0.1315E-01  0.2785E+00  0.2785E+00
     11.071  0.1146E-01  0.1146E-01  0.2794E+00  0.2794E+00
     11.151  0.8999E-02  0.8999E-02  0.2802E+00  0.2802E+00
     11.231  0.9541E-02  0.9541E-02  0.2809E+00  0.2809E+00
     11.311  0.1339E-01  0.1339E-01  0.2820E+00  0.2820E+00
     11.391  0.1630E-01  0.1630E-01  0.2833E+00  0.2833E+00
     11.471  0.1426E-01  0.1426E-01  0.2844E+00  0.2844E+00
     11.550  0.8784E-02  0.8785E-02  0.2851E+00  0.2851E+00
     11.630  0.4862E-02  0.4863E-02  0.2855E+00  0.2855E+00
     11.710  0.4872E-02  0.4872E-02  0.2859E+00  0.2859E+00
     11.790  0.7213E-02  0.7213E-02  0.2865E+00  0.2865E+00
     11.870  0.8991E-02  0.8991E-02  0.2872E+00  0.2872E+00
     11.950  0.8241E-02  0.8241E-02  0.2879E+00  0.2879E+00
     12.030  0.5339E-02  0.5339E-02  0.2883E+00  0.2883E+00
     12.110  0.2464E-02  0.2464E-02  0.2885E+00  0.2885E+00
     12.189  0.9439E-03  0.9440E-03  0.2886E+00  0.2886E+00
     12.269  0.4583E-03  0.4584E-03  0.2886E+00  0.2886E+00
     12.349  0.6498E-03  0.6498E-03  0.2886E+00  0.2886E+00
     12.429  0.1533E-02  0.1533E-02  0.2888E+00  0.2888E+00
     12.509  0.2560E-02  0.2560E-02  0.2890E+00  0.2890E+00
     12.589  0.2859E-02  0.2859E-02  0.2892E+00  0.2892E+00
     12.669  0.2466E-02  0.2466E-02  0.2894E+00  0.2894E+00
     12.749  0.2222E-02  0.2222E-02  0.2896E+00  0.2896E+00
     12.828  0.2304E-02  0.2304E-02  0.2898E+00  0.2898E+00
     12.908  0.1993E-02  0.1993E-02  0.2899E+00  0.2899E+00
     12.988  0.1083E-02  0.1083E-02  0.2900E+00  0.2900E+00
     13.068  0.2365E-03  0.2365E-03  0.2900E+00  0.2900E+00
     13.148 -0.1022E-03 -0.1022E-03  0.2900E+00  0.2900E+00
     13.228 -0.1021E-03 -0.1021E-03  0.2900E+00  0.2900E+00
     13.308 -0.4014E-04 -0.4014E-04  0.2900E+00  0.2900E+00
     13.388 -0.9540E-05 -0.9541E-05  0.2900E+00  0.2900E+00
     13.467 -0.1505E-05 -0.1506E-05  0.2900E+00  0.2900E+00
     13.547 -0.1636E-06 -0.1636E-06  0.2900E+00  0.2900E+00
     13.627 -0.1248E-07 -0.1248E-07  0.2900E+00  0.2900E+00
     13.707 -0.6747E-09 -0.6748E-09  0.2900E+00  0.2900E+00
     13.787 -0.2604E-10 -0.2604E-10  0.2900E+00  0.2900E+00
     13.867 -0.7204E-12 -0.7205E-12  0.2900E+00  0.2900E+00
     13.947 -0.1433E-13 -0.1433E-13  0.2900E+00  0.2900E+00
     14.027 -0.2046E-15 -0.2046E-15  0.2900E+00  0.2900E+00
     14.106 -0.2317E-17 -0.2317E-17  0.2900E+00  0.2900E+00
     14.186  0.0000E+00  0.0000E+00  0.2900E+00  0.2900E+00
     14.266  0.0000E+00  0.0000E+00  0.2900E+00  0.2900E+00
     14.346  0.0000E+00  0.0000E+00  0.2900E+00  0.2900E+00
     14.426  0.0000E+00  0.0000E+00  0.2900E+00  0.2900E+00
     14.506  0.0000E+00  0.0000E+00  0.2900E+00  0.2900E+00
     14.586  0.0000E+00  0.0000E+00  0.2900E+00  0.2900E+00
     14.666  0.0000E+00  0.0000E+00  0.2900E+00  0.2900E+00
     14.745  0.0000E+00  0.0000E+00  0.2900E+00  0.2900E+00
     14.825  0.0000E+00  0.0000E+00  0.2900E+00  0.2900E+00
