   34   34  800    2
  0.1991679E+02  0.5133595E-09  0.5133595E-09  0.2967047E-08  0.5000000E-15
  1.000000000000000E-004
  CAR 
 unknown system                          
    354      4    232
 
  0.0000000E+00  0.0000000E+00  0.0000000E+00  0.1111111E+00
      1         -7.136841       -7.136841   1.000000   1.000000
      2         -6.734089       -6.734089   1.000000   1.000000
      3         -6.098939       -6.098939   1.000000   1.000000
      4         -5.256680       -5.256680   1.000000   1.000000
      5         -4.339742       -4.339742   1.000000   1.000000
      6         -3.645457       -3.645457   1.000000   1.000000
      7         -3.405423       -3.405423   1.000000   1.000000
      8         -3.023869       -3.023869   1.000000   1.000000
      9         -2.908679       -2.908679   1.000000   1.000000
     10         -2.908510       -2.908510   1.000000   1.000000
     11         -2.908333       -2.908333   1.000000   1.000000
     12         -2.898141       -2.898141   1.000000   1.000000
     13         -2.721213       -2.721213   1.000000   1.000000
     14         -2.721045       -2.721045   1.000000   1.000000
     15         -2.720959       -2.720959   1.000000   1.000000
     16         -2.699485       -2.699485   1.000000   1.000000
     17         -2.699288       -2.699288   1.000000   1.000000
     18         -2.699117       -2.699117   1.000000   1.000000
     19         -2.580018       -2.580018   1.000000   1.000000
     20         -2.579720       -2.579720   1.000000   1.000000
     21         -2.579525       -2.579525   1.000000   1.000000
     22         -2.440121       -2.440121   1.000000   1.000000
     23         -2.439911       -2.439911   1.000000   1.000000
     24         -2.439560       -2.439560   1.000000   1.000000
     25         -2.393866       -2.393866   1.000000   1.000000
     26         -2.393410       -2.393410   1.000000   1.000000
     27         -2.393164       -2.393164   1.000000   1.000000
     28         -2.248866       -2.248866   1.000000   1.000000
     29         -2.248666       -2.248666   1.000000   1.000000
     30         -2.248545       -2.248545   1.000000   1.000000
     31         -2.128655       -2.128655   1.000000   1.000000
     32         -2.128323       -2.128323   1.000000   1.000000
     33         -2.127630       -2.127630   1.000000   1.000000
     34         -2.124168       -2.124168   1.000000   1.000000
     35         -2.122187       -2.122187   1.000000   1.000000
     36         -2.122083       -2.122083   1.000000   1.000000
     37         -2.112331       -2.112331   1.000000   1.000000
     38         -2.111693       -2.111693   1.000000   1.000000
     39         -2.111670       -2.111670   1.000000   1.000000
     40         -1.939713       -1.939713   1.000000   1.000000
     41         -1.939470       -1.939470   1.000000   1.000000
     42         -1.939461       -1.939461   1.000000   1.000000
     43         -1.694246       -1.694246   1.000000   1.000000
     44         -1.693810       -1.693810   1.000000   1.000000
     45         -1.693743       -1.693743   1.000000   1.000000
     46         -1.379622       -1.379622   1.000000   1.000000
     47         -1.379295       -1.379295   1.000000   1.000000
     48         -1.378553       -1.378553   1.000000   1.000000
     49         -1.072800       -1.072800   1.000000   1.000000
     50         -1.072556       -1.072556   1.000000   1.000000
     51         -1.071954       -1.071954   1.000000   1.000000
     52         -0.966829       -0.966829   1.000000   1.000000
     53         -0.952517       -0.952517   1.000000   1.000000
     54         -0.941734       -0.941734   1.000000   1.000000
     55         -0.941386       -0.941386   1.000000   1.000000
     56         -0.941197       -0.941197   1.000000   1.000000
     57         -0.885877       -0.885877   1.000000   1.000000
     58         -0.885871       -0.885871   1.000000   1.000000
     59         -0.880295       -0.880295   1.000000   1.000000
     60         -0.880292       -0.880292   1.000000   1.000000
     61         -0.877380       -0.877380   1.000000   1.000000
     62         -0.876846       -0.876846   1.000000   1.000000
     63         -0.876686       -0.876686   1.000000   1.000000
     64         -0.814237       -0.814237   1.000000   1.000000
     65         -0.808299       -0.808299   1.000000   1.000000
     66         -0.808292       -0.808292   1.000000   1.000000
     67         -0.802480       -0.802480   1.000000   1.000000
     68         -0.791175       -0.791175   1.000000   1.000000
     69         -0.790308       -0.790308   1.000000   1.000000
     70         -0.790296       -0.790296   1.000000   1.000000
     71         -0.787781       -0.787781   1.000000   1.000000
     72         -0.787261       -0.787261   1.000000   1.000000
     73         -0.785911       -0.785911   1.000000   1.000000
     74         -0.783857       -0.783857   1.000000   1.000000
     75         -0.783820       -0.783820   1.000000   1.000000
     76         -0.780329       -0.780329   1.000000   1.000000
     77         -0.780186       -0.780186   1.000000   1.000000
     78         -0.780180       -0.780180   1.000000   1.000000
     79         -0.737403       -0.737403   1.000000   1.000000
     80         -0.737394       -0.737394   1.000000   1.000000
     81         -0.725226       -0.725226   1.000000   1.000000
     82         -0.697083       -0.697083   1.000000   1.000000
     83         -0.697061       -0.697061   1.000000   1.000000
     84         -0.686039       -0.686039   1.000000   1.000000
     85         -0.685792       -0.685792   1.000000   1.000000
     86         -0.685474       -0.685474   1.000000   1.000000
     87         -0.607104       -0.607104   1.000000   1.000000
     88         -0.607074       -0.607074   1.000000   1.000000
     89         -0.589720       -0.589720   1.000000   1.000000
     90         -0.589708       -0.589708   1.000000   1.000000
     91         -0.555141       -0.555141   1.000000   1.000000
     92         -0.553835       -0.553835   1.000000   1.000000
     93         -0.553831       -0.553831   1.000000   1.000000
     94         -0.467759       -0.467759   1.000000   1.000000
     95         -0.465280       -0.465280   1.000000   1.000000
     96         -0.463420       -0.463420   1.000000   1.000000
     97         -0.457405       -0.457405   1.000000   1.000000
     98         -0.261579       -0.261579   1.000000   1.000000
     99         -0.260442       -0.260442   1.000000   1.000000
    100         -0.259958       -0.259958   1.000000   1.000000
    101         -0.205197       -0.205197   1.000000   1.000000
    102         -0.204644       -0.204644   1.000000   1.000000
    103         -0.204238       -0.204238   1.000000   1.000000
    104         -0.027051       -0.027051   1.000000   1.000000
    105         -0.027039       -0.027039   1.000000   1.000000
    106         -0.018431       -0.018431   1.000000   1.000000
    107         -0.018332       -0.018332   1.000000   1.000000
    108          0.014640        0.014640   1.000000   1.000000
    109          0.017586        0.017586   1.000000   1.000000
    110          0.017984        0.017984   1.000000   1.000000
    111          0.018103        0.018103   1.000000   1.000000
    112          0.019300        0.019300   1.000000   1.000000
    113          0.026224        0.026224   1.000000   1.000000
    114          0.027477        0.027477   1.000000   1.000000
    115          0.028271        0.028271   1.000000   1.000000
    116          0.077788        0.077788   1.000000   1.000000
    117          0.077874        0.077874   1.000000   1.000000
    118          0.231587        0.231587   1.000000   1.000000
    119          0.231766        0.231766   1.000000   1.000000
    120          0.282321        0.282321   1.000000   1.000000
    121          0.283036        0.283036   1.000000   1.000000
    122          0.283680        0.283680   1.000000   1.000000
    123          0.311861        0.311861   1.000000   1.000000
    124          0.312436        0.312436   1.000000   1.000000
    125          0.312761        0.312761   1.000000   1.000000
    126          0.387549        0.387549   1.000000   1.000000
    127          0.387562        0.387562   1.000000   1.000000
    128          0.387674        0.387674   1.000000   1.000000
    129          0.477092        0.477092   1.000000   1.000000
    130          0.478004        0.478004   1.000000   1.000000
    131          0.478102        0.478102   1.000000   1.000000
    132          0.498384        0.498384   1.000000   1.000000
    133          0.500249        0.500249   1.000000   1.000000
    134          0.501575        0.501575   1.000000   1.000000
    135          0.523967        0.523967   1.000000   1.000000
    136          0.524042        0.524042   1.000000   1.000000
    137          0.545364        0.545364   1.000000   1.000000
    138          0.545755        0.545755   1.000000   1.000000
    139          0.546096        0.546096   1.000000   1.000000
    140          0.548617        0.548617   1.000000   1.000000
    141          0.549036        0.549036   1.000000   1.000000
    142          0.549419        0.549419   1.000000   1.000000
    143          0.575534        0.575534   1.000000   1.000000
    144          0.576149        0.576149   1.000000   1.000000
    145          0.576459        0.576459   1.000000   1.000000
    146          0.581021        0.581021   1.000000   1.000000
    147          0.581961        0.581961   1.000000   1.000000
    148          0.582147        0.582147   1.000000   1.000000
    149          0.602250        0.602250   1.000000   1.000000
    150          0.602726        0.602726   1.000000   1.000000
    151          0.603012        0.603012   1.000000   1.000000
    152          0.606445        0.606445   1.000000   1.000000
    153          0.606527        0.606527   1.000000   1.000000
    154          0.648953        0.648953   1.000000   1.000000
    155          0.649413        0.649413   1.000000   1.000000
    156          0.650241        0.650241   1.000000   1.000000
    157          0.656051        0.656051   1.000000   1.000000
    158          0.657332        0.657332   1.000000   1.000000
    159          0.657640        0.657640   1.000000   1.000000
    160          0.677072        0.677072   1.000000   1.000000
    161          0.678339        0.678339   1.000000   1.000000
    162          0.679506        0.679506   1.000000   1.000000
    163          0.700881        0.700881   1.000000   1.000000
    164          0.701601        0.701601   1.000000   1.000000
    165          0.702389        0.702389   1.000000   1.000000
    166          0.740132        0.740132   1.000000   1.000000
    167          0.741011        0.741011   1.000000   1.000000
    168          0.741049        0.741049   1.000000   1.000000
    169          1.474012        1.474012   1.000005   1.000005
    170          1.474748        1.474748   1.000006   1.000006
    171          1.474924        1.474924   1.000006   1.000006
    172          1.639365        1.639365   1.000603   1.000603
    173          1.982715        1.982715   1.015351   1.015351
    174          2.104552        2.104552   0.752412   0.752412
    175          2.105541        2.105541   0.748865   0.748865
    176          2.106158        2.106158   0.746640   0.746640
    177          2.643871        2.643871  -0.001933  -0.001933
    178          2.644973        2.644973  -0.001888  -0.001888
    179          2.646319        2.646319  -0.001836  -0.001836
    180          3.033112        3.033112  -0.000000  -0.000000
    181          3.034160        3.034160  -0.000000  -0.000000
    182          3.035586        3.035586  -0.000000  -0.000000
    183          3.293615        3.293615  -0.000000  -0.000000
    184          3.295110        3.295110  -0.000000  -0.000000
    185          3.296785        3.296785  -0.000000  -0.000000
    186          3.488137        3.488137  -0.000000  -0.000000
    187          3.489835        3.489835  -0.000000  -0.000000
    188          3.491458        3.491458  -0.000000  -0.000000
    189          3.648421        3.648421  -0.000000  -0.000000
    190          3.649994        3.649994  -0.000000  -0.000000
    191          3.651569        3.651569  -0.000000  -0.000000
    192          3.734543        3.734543  -0.000000  -0.000000
    193          3.735376        3.735376  -0.000000  -0.000000
    194          3.736358        3.736358  -0.000000  -0.000000
    195          6.121938        6.121938  -0.000000  -0.000000
    196          6.127696        6.127696  -0.000000  -0.000000
    197          6.129146        6.129146  -0.000000  -0.000000
    198          6.371220        6.371233  -0.000000  -0.000000
    199          6.540278        6.540283  -0.000000  -0.000000
    200          6.544209        6.544209  -0.000000  -0.000000
    201          6.553505        6.553505  -0.000000  -0.000000
    202          6.644702        6.644705  -0.000000  -0.000000
    203          7.084416        7.084416  -0.000000  -0.000000
    204          7.111125        7.111126  -0.000000  -0.000000
    205          7.123336        7.123338  -0.000000  -0.000000
    206          7.394767        7.394773  -0.000000  -0.000000
    207          7.665026        7.665026   0.000000   0.000000
    208          7.679228        7.679235   0.000000   0.000000
    209          7.707852        7.707852   0.000000   0.000000
    210          7.923475        7.923495   0.000000   0.000000
    211          8.420704        8.420704   0.000000   0.000000
    212          8.452594        8.452595   0.000000   0.000000
    213          8.476451        8.476452   0.000000   0.000000
    214          8.824882        8.824891   0.000000   0.000000
    215          9.315239        9.315250   0.000000   0.000000
    216          9.432452        9.432452   0.000000   0.000000
    217          9.462006        9.462006   0.000000   0.000000
    218          9.513692        9.513698   0.000000   0.000000
    219         10.089983       10.089983   0.000000   0.000000
    220         10.117225       10.117225   0.000000   0.000000
    221         10.132707       10.132708   0.000000   0.000000
    222         10.531183       10.531189   0.000000   0.000000
    223         10.608289       10.608289   0.000000   0.000000
    224         10.722655       10.722655   0.000000   0.000000
    225         10.869426       10.869431   0.000000   0.000000
    226         11.171672       11.171672   0.000000   0.000000
    227         11.241626       11.241626   0.000000   0.000000
    228         11.353983       11.353986   0.000000   0.000000
    229         11.505231       11.505237   0.000000   0.000000
    230         11.585897       11.585899   0.000000   0.000000
    231         11.874364       11.874364   0.000000   0.000000
    232         11.978243       11.978247   0.000000   0.000000
 
  0.3333333E+00  0.5551115E-16  0.0000000E+00  0.4444444E+00
      1         -6.266918       -6.266918   1.000000   1.000000
      2         -5.880082       -5.880082   1.000000   1.000000
      3         -5.272845       -5.272845   1.000000   1.000000
      4         -4.476251       -4.476251   1.000000   1.000000
      5         -4.043574       -4.043574   1.000000   1.000000
      6         -3.778841       -3.778841   1.000000   1.000000
      7         -3.672758       -3.672758   1.000000   1.000000
      8         -3.465039       -3.465039   1.000000   1.000000
      9         -3.392300       -3.392300   1.000000   1.000000
     10         -2.980361       -2.980361   1.000000   1.000000
     11         -2.857397       -2.857397   1.000000   1.000000
     12         -2.712535       -2.712535   1.000000   1.000000
     13         -2.712418       -2.712418   1.000000   1.000000
     14         -2.607580       -2.607580   1.000000   1.000000
     15         -2.559334       -2.559334   1.000000   1.000000
     16         -2.559158       -2.559158   1.000000   1.000000
     17         -2.490124       -2.490124   1.000000   1.000000
     18         -2.462050       -2.462050   1.000000   1.000000
     19         -2.461975       -2.461975   1.000000   1.000000
     20         -2.415369       -2.415369   1.000000   1.000000
     21         -2.409099       -2.409099   1.000000   1.000000
     22         -2.408763       -2.408763   1.000000   1.000000
     23         -2.292272       -2.292272   1.000000   1.000000
     24         -2.291364       -2.291364   1.000000   1.000000
     25         -2.291068       -2.291068   1.000000   1.000000
     26         -2.124621       -2.124621   1.000000   1.000000
     27         -2.124188       -2.124188   1.000000   1.000000
     28         -2.019688       -2.019688   1.000000   1.000000
     29         -2.019605       -2.019605   1.000000   1.000000
     30         -2.017920       -2.017920   1.000000   1.000000
     31         -2.015332       -2.015332   1.000000   1.000000
     32         -1.915338       -1.915338   1.000000   1.000000
     33         -1.914394       -1.914394   1.000000   1.000000
     34         -1.891093       -1.891093   1.000000   1.000000
     35         -1.890998       -1.890998   1.000000   1.000000
     36         -1.886569       -1.886569   1.000000   1.000000
     37         -1.856191       -1.856191   1.000000   1.000000
     38         -1.726572       -1.726572   1.000000   1.000000
     39         -1.725870       -1.725870   1.000000   1.000000
     40         -1.700147       -1.700147   1.000000   1.000000
     41         -1.695035       -1.695035   1.000000   1.000000
     42         -1.694636       -1.694636   1.000000   1.000000
     43         -1.528313       -1.528313   1.000000   1.000000
     44         -1.528002       -1.528002   1.000000   1.000000
     45         -1.523798       -1.523798   1.000000   1.000000
     46         -1.461564       -1.461564   1.000000   1.000000
     47         -1.461005       -1.461005   1.000000   1.000000
     48         -1.408198       -1.408198   1.000000   1.000000
     49         -1.341925       -1.341925   1.000000   1.000000
     50         -1.305460       -1.305460   1.000000   1.000000
     51         -1.305147       -1.305147   1.000000   1.000000
     52         -1.282070       -1.282070   1.000000   1.000000
     53         -1.251213       -1.251213   1.000000   1.000000
     54         -1.194902       -1.194902   1.000000   1.000000
     55         -1.194294       -1.194294   1.000000   1.000000
     56         -1.193820       -1.193820   1.000000   1.000000
     57         -1.165243       -1.165243   1.000000   1.000000
     58         -1.164469       -1.164469   1.000000   1.000000
     59         -1.129696       -1.129696   1.000000   1.000000
     60         -1.126787       -1.126787   1.000000   1.000000
     61         -1.108694       -1.108694   1.000000   1.000000
     62         -1.108323       -1.108323   1.000000   1.000000
     63         -1.098618       -1.098618   1.000000   1.000000
     64         -1.092437       -1.092437   1.000000   1.000000
     65         -1.043710       -1.043710   1.000000   1.000000
     66         -0.998976       -0.998976   1.000000   1.000000
     67         -0.998752       -0.998752   1.000000   1.000000
     68         -0.933609       -0.933609   1.000000   1.000000
     69         -0.890389       -0.890389   1.000000   1.000000
     70         -0.879850       -0.879850   1.000000   1.000000
     71         -0.860494       -0.860494   1.000000   1.000000
     72         -0.860300       -0.860300   1.000000   1.000000
     73         -0.841326       -0.841326   1.000000   1.000000
     74         -0.837786       -0.837786   1.000000   1.000000
     75         -0.817510       -0.817510   1.000000   1.000000
     76         -0.816481       -0.816481   1.000000   1.000000
     77         -0.774850       -0.774850   1.000000   1.000000
     78         -0.771453       -0.771453   1.000000   1.000000
     79         -0.719222       -0.719222   1.000000   1.000000
     80         -0.703679       -0.703679   1.000000   1.000000
     81         -0.696165       -0.696165   1.000000   1.000000
     82         -0.692206       -0.692206   1.000000   1.000000
     83         -0.667780       -0.667780   1.000000   1.000000
     84         -0.667434       -0.667434   1.000000   1.000000
     85         -0.659650       -0.659650   1.000000   1.000000
     86         -0.650796       -0.650796   1.000000   1.000000
     87         -0.643109       -0.643109   1.000000   1.000000
     88         -0.595086       -0.595086   1.000000   1.000000
     89         -0.594366       -0.594366   1.000000   1.000000
     90         -0.593783       -0.593783   1.000000   1.000000
     91         -0.584616       -0.584616   1.000000   1.000000
     92         -0.564503       -0.564503   1.000000   1.000000
     93         -0.529815       -0.529815   1.000000   1.000000
     94         -0.497980       -0.497980   1.000000   1.000000
     95         -0.487335       -0.487335   1.000000   1.000000
     96         -0.470008       -0.470008   1.000000   1.000000
     97         -0.469710       -0.469710   1.000000   1.000000
     98         -0.468911       -0.468911   1.000000   1.000000
     99         -0.466400       -0.466400   1.000000   1.000000
    100         -0.457701       -0.457701   1.000000   1.000000
    101         -0.444930       -0.444930   1.000000   1.000000
    102         -0.444249       -0.444249   1.000000   1.000000
    103         -0.368439       -0.368439   1.000000   1.000000
    104         -0.353191       -0.353191   1.000000   1.000000
    105         -0.352615       -0.352615   1.000000   1.000000
    106         -0.321560       -0.321560   1.000000   1.000000
    107         -0.295387       -0.295387   1.000000   1.000000
    108         -0.282940       -0.282940   1.000000   1.000000
    109         -0.271598       -0.271598   1.000000   1.000000
    110         -0.270482       -0.270482   1.000000   1.000000
    111         -0.258967       -0.258967   1.000000   1.000000
    112         -0.257970       -0.257970   1.000000   1.000000
    113         -0.257657       -0.257657   1.000000   1.000000
    114         -0.202713       -0.202713   1.000000   1.000000
    115         -0.186110       -0.186110   1.000000   1.000000
    116         -0.175204       -0.175204   1.000000   1.000000
    117         -0.131493       -0.131493   1.000000   1.000000
    118         -0.130851       -0.130851   1.000000   1.000000
    119         -0.085284       -0.085284   1.000000   1.000000
    120         -0.062007       -0.062007   1.000000   1.000000
    121         -0.058291       -0.058291   1.000000   1.000000
    122         -0.017306       -0.017306   1.000000   1.000000
    123          0.018283        0.018283   1.000000   1.000000
    124          0.018916        0.018916   1.000000   1.000000
    125          0.026962        0.026962   1.000000   1.000000
    126          0.073452        0.073452   1.000000   1.000000
    127          0.094215        0.094215   1.000000   1.000000
    128          0.153318        0.153318   1.000000   1.000000
    129          0.153598        0.153598   1.000000   1.000000
    130          0.159439        0.159439   1.000000   1.000000
    131          0.196642        0.196642   1.000000   1.000000
    132          0.211831        0.211831   1.000000   1.000000
    133          0.212198        0.212198   1.000000   1.000000
    134          0.221446        0.221446   1.000000   1.000000
    135          0.228355        0.228355   1.000000   1.000000
    136          0.228667        0.228667   1.000000   1.000000
    137          0.234424        0.234424   1.000000   1.000000
    138          0.244792        0.244792   1.000000   1.000000
    139          0.255726        0.255726   1.000000   1.000000
    140          0.256993        0.256993   1.000000   1.000000
    141          0.257995        0.257995   1.000000   1.000000
    142          0.278662        0.278662   1.000000   1.000000
    143          0.318420        0.318420   1.000000   1.000000
    144          0.319247        0.319247   1.000000   1.000000
    145          0.325500        0.325500   1.000000   1.000000
    146          0.344535        0.344535   1.000000   1.000000
    147          0.347200        0.347200   1.000000   1.000000
    148          0.372964        0.372964   1.000000   1.000000
    149          0.378592        0.378592   1.000000   1.000000
    150          0.401855        0.401855   1.000000   1.000000
    151          0.421947        0.421947   1.000000   1.000000
    152          0.436730        0.436730   1.000000   1.000000
    153          0.437606        0.437606   1.000000   1.000000
    154          0.456036        0.456036   1.000000   1.000000
    155          0.543035        0.543035   1.000000   1.000000
    156          0.543471        0.543471   1.000000   1.000000
    157          0.543742        0.543742   1.000000   1.000000
    158          0.573917        0.573917   1.000000   1.000000
    159          0.578214        0.578214   1.000000   1.000000
    160          0.587690        0.587690   1.000000   1.000000
    161          0.588250        0.588250   1.000000   1.000000
    162          0.607910        0.607910   1.000000   1.000000
    163          0.608562        0.608562   1.000000   1.000000
    164          0.632290        0.632290   1.000000   1.000000
    165          0.654908        0.654908   1.000000   1.000000
    166          0.655577        0.655577   1.000000   1.000000
    167          0.677877        0.677877   1.000000   1.000000
    168          0.679327        0.679327   1.000000   1.000000
    169          0.717068        0.717068   1.000000   1.000000
    170          0.718550        0.718550   1.000000   1.000000
    171          1.116186        1.116186   1.000000   1.000000
    172          1.492376        1.492376   1.000010   1.000010
    173          1.847561        1.847561   1.023072   1.023072
    174          1.848386        1.848386   1.023263   1.023263
    175          1.958422        1.958422   1.029232   1.029232
    176          2.004384        2.004384   0.993967   0.993967
    177          2.005037        2.005037   0.993173   0.993173
    178          2.265280        2.265280   0.136152   0.136152
    179          2.265753        2.265753   0.134830   0.134830
    180          2.605736        2.605736  -0.004112  -0.004112
    181          2.784920        2.784920  -0.000057  -0.000057
    182          2.785584        2.785584  -0.000056  -0.000056
    183          3.076622        3.076622  -0.000000  -0.000000
    184          3.588597        3.588597  -0.000000  -0.000000
    185          3.589229        3.589229  -0.000000  -0.000000
    186          3.734839        3.734839  -0.000000  -0.000000
    187          3.979995        3.979995  -0.000000  -0.000000
    188          4.620197        4.620197  -0.000000  -0.000000
    189          4.622550        4.622550  -0.000000  -0.000000
    190          5.492660        5.492660  -0.000000  -0.000000
    191          5.717759        5.717759  -0.000000  -0.000000
    192          5.721568        5.721568  -0.000000  -0.000000
    193          6.376663        6.376663  -0.000000  -0.000000
    194          6.380244        6.380244  -0.000000  -0.000000
    195          6.695117        6.695118  -0.000000  -0.000000
    196          6.926916        6.926916  -0.000000  -0.000000
    197          6.931222        6.931222  -0.000000  -0.000000
    198          7.174733        7.174744  -0.000000  -0.000000
    199          7.245109        7.245112  -0.000000  -0.000000
    200          7.418125        7.418125  -0.000000  -0.000000
    201          7.447337        7.447338  -0.000000  -0.000000
    202          7.849435        7.849439   0.000000   0.000000
    203          7.985209        7.985209   0.000000   0.000000
    204          8.046796        8.046797   0.000000   0.000000
    205          8.307168        8.307189   0.000000   0.000000
    206          8.549307        8.549308   0.000000   0.000000
    207          8.563925        8.563927   0.000000   0.000000
    208          8.632226        8.632228   0.000000   0.000000
    209          9.006006        9.006007   0.000000   0.000000
    210          9.100126        9.100136   0.000000   0.000000
    211          9.312819        9.312819   0.000000   0.000000
    212          9.432344        9.432346   0.000000   0.000000
    213          9.453554        9.453559   0.000000   0.000000
    214          9.775944        9.775954   0.000000   0.000000
    215         10.080698       10.080707   0.000000   0.000000
    216         10.107466       10.107468   0.000000   0.000000
    217         10.151988       10.151992   0.000000   0.000000
    218         10.345927       10.345942   0.000000   0.000000
    219         10.493649       10.493656   0.000000   0.000000
    220         10.661306       10.661306   0.000000   0.000000
    221         10.690137       10.690137   0.000000   0.000000
    222         10.867680       10.867681   0.000000   0.000000
    223         10.934749       10.934764   0.000000   0.000000
    224         10.977851       10.977851   0.000000   0.000000
    225         10.987703       10.987704   0.000000   0.000000
    226         11.125162       11.125167   0.000000   0.000000
    227         11.278620       11.278622   0.000000   0.000000
    228         11.372984       11.372986   0.000000   0.000000
    229         11.381323       11.381331   0.000000   0.000000
    230         11.731147       11.731149   0.000000   0.000000
    231         11.854896       11.854898   0.000000   0.000000