<?xml version="1.0" encoding="ISO-8859-1"?>
<modeling>
 <generator>
  <i name="program" type="string">vasp </i>
  <i name="version" type="string">6.3.2  </i>
  <i name="subversion" type="string">27Jun22 (build Aug 17 2022 15:43:34) complex                          parallel </i>
  <i name="platform" type="string">tv2STDVTST </i>
  <i name="date" type="string">2025 02 17 </i>
  <i name="time" type="string">19:41:46 </i>
 </generator>
 <incar>
  <i type="int" name="ISTART">     0</i>
  <i type="string" name="PREC">Normal</i>
  <i type="int" name="ISPIN">     2</i>
  <i type="int" name="ICHARG">     2</i>
  <i type="int" name="IBRION">     2</i>
  <i name="EDIFF">      0.00020000</i>
  <i name="EDIFFG">     -0.03000000</i>
  <i type="int" name="NSW">   800</i>
  <i type="int" name="ISIF">     2</i>
  <i type="int" name="ISYM">     1</i>
  <i name="ENCUT">    400.00000000</i>
  <i name="POTIM">      0.50000000</i>
  <i type="logical" name="LREAL"> F  </i>
  <i type="int" name="ISMEAR">     1</i>
  <i name="SIGMA">      0.20000000</i>
  <i type="logical" name="LWAVE"> F  </i>
  <i type="logical" name="LCHARG"> F  </i>
  <i type="string" name="GGA">PE</i>
  <i type="int" name="IVDW">    11</i>
 </incar>
 <primitive_cell>
  <structure name="primitive_cell" >
   <crystal>
    <varray name="basis" >
     <v>       5.13359547       0.00000000       0.00000000 </v>
     <v>       2.56679773       4.44582409       0.00000000 </v>
     <v>       0.00000000       0.00000000      29.67047119 </v>
    </varray>
    <i name="volume">    677.17101477 </i>
    <varray name="rec_basis" >
     <v>       0.19479525      -0.11246509       0.00000000 </v>
     <v>       0.00000000       0.22493018       0.00000000 </v>
     <v>       0.00000000       0.00000000       0.03370354 </v>
    </varray>
   </crystal>
   <varray name="positions" >
    <v>       0.00000000       0.00000000       0.00000000 </v>
    <v>       1.00000000       0.50000000       0.00000000 </v>
    <v>       0.50000000       0.00000000       0.00000000 </v>
    <v>       0.50000000       0.50000000       0.00000000 </v>
    <v>       0.16666667       0.16666667       0.07063526 </v>
    <v>       0.16666667       0.66666667       0.07063526 </v>
    <v>       0.66666667       0.16666667       0.07063526 </v>
    <v>       0.66666667       0.66666667       0.07063526 </v>
    <v>       0.33333333       0.33333333       0.13847021 </v>
    <v>       0.33333333       0.83333333       0.13847021 </v>
    <v>       0.83333333       0.33333333       0.13847021 </v>
    <v>       0.83333333       0.83333333       0.13847021 </v>
    <v>       0.00000000       0.00000000       0.20667428 </v>
    <v>       1.00000000       0.50000000       0.20667428 </v>
    <v>       0.50000000       0.00000000       0.20667428 </v>
    <v>       0.50000000       0.50000000       0.20667428 </v>
    <v>       0.16666667       0.16666667       0.27488859 </v>
    <v>       0.16666667       0.66666667       0.27488859 </v>
    <v>       0.66666667       0.16666667       0.27488859 </v>
    <v>       0.66666667       0.66666667       0.27488859 </v>
    <v>       0.33333333       0.33333333       0.34319917 </v>
    <v>       0.33333333       0.83333333       0.34319917 </v>
    <v>       0.83333333       0.33333333       0.34319917 </v>
    <v>       0.83333333       0.83333333       0.34319917 </v>
    <v>       0.00000000       0.00000000       0.41105828 </v>
    <v>       1.00000000       0.50000000       0.41105828 </v>
    <v>       0.50000000       0.00000000       0.41105828 </v>
    <v>       0.50000000       0.50000000       0.41105828 </v>
    <v>       0.16666667       0.16666667       0.48054462 </v>
    <v>       0.16666667       0.66666667       0.48054462 </v>
    <v>       0.66666667       0.16666667       0.48054462 </v>
    <v>       0.66666667       0.66666667       0.48054462 </v>
    <v>       0.91666667       0.66666667       0.53425930 </v>
    <v>       0.91666667       0.66666667       0.55940215 </v>
   </varray>
  </structure>
  <varray name="primitive_index" >
   <v type="int" >        1 </v>
   <v type="int" >        2 </v>
   <v type="int" >        3 </v>
   <v type="int" >        4 </v>
   <v type="int" >        5 </v>
   <v type="int" >        6 </v>
   <v type="int" >        7 </v>
   <v type="int" >        8 </v>
   <v type="int" >        9 </v>
   <v type="int" >       10 </v>
   <v type="int" >       11 </v>
   <v type="int" >       12 </v>
   <v type="int" >       13 </v>
   <v type="int" >       14 </v>
   <v type="int" >       15 </v>
   <v type="int" >       16 </v>
   <v type="int" >       17 </v>
   <v type="int" >       18 </v>
   <v type="int" >       19 </v>
   <v type="int" >       20 </v>
   <v type="int" >       21 </v>
   <v type="int" >       22 </v>
   <v type="int" >       23 </v>
   <v type="int" >       24 </v>
   <v type="int" >       25 </v>
   <v type="int" >       26 </v>
   <v type="int" >       27 </v>
   <v type="int" >       28 </v>
   <v type="int" >       29 </v>
   <v type="int" >       30 </v>
   <v type="int" >       31 </v>
   <v type="int" >       32 </v>
   <v type="int" >       33 </v>
   <v type="int" >       34 </v>
  </varray>
 </primitive_cell>
 <kpoints>
  <generation param="Monkhorst-Pack">
   <v type="int" name="divisions">       3        3        1 </v>
   <v name="usershift">      0.00000000       0.00000000       0.00000000 </v>
   <v name="genvec1">      0.33333333       0.00000000       0.00000000 </v>
   <v name="genvec2">      0.00000000       0.33333333       0.00000000 </v>
   <v name="genvec3">      0.00000000       0.00000000       1.00000000 </v>
   <v name="shift">      0.00000000       0.00000000       0.00000000 </v>
  </generation>
  <varray name="kpointlist" >
   <v>       0.00000000       0.00000000       0.00000000 </v>
   <v>       0.33333333       0.00000000       0.00000000 </v>
   <v>       0.00000000       0.33333333       0.00000000 </v>
   <v>      -0.33333333       0.33333333       0.00000000 </v>
  </varray>
  <varray name="weights" >
   <v>       0.11111111 </v>
   <v>       0.44444444 </v>
   <v>       0.22222222 </v>
   <v>       0.22222222 </v>
  </varray>
 </kpoints>
 <parameters>
  <separator name="general" >
   <i type="string" name="SYSTEM">unknown system</i>
   <i type="logical" name="LCOMPAT"> F  </i>
  </separator>
  <separator name="electronic" >
   <i type="string" name="PREC">normal</i>
   <i name="ENMAX">    400.00000000</i>
   <i name="ENAUG">    586.98000000</i>
   <i name="EDIFF">      0.00020000</i>
   <i type="int" name="IALGO">    38</i>
   <i type="int" name="IWAVPR">    11</i>
   <i type="int" name="NBANDS">   232</i>
   <i type="int" name="NBANDSLOW">    -1</i>
   <i type="int" name="NBANDSHIGH">    -1</i>
   <i name="NELECT">    354.00000000</i>
   <i type="int" name="TURBO">     0</i>
   <i type="int" name="IRESTART">     0</i>
   <i type="int" name="NREBOOT">     0</i>
   <i type="int" name="NMIN">     0</i>
   <i name="EREF">      0.00000000</i>
   <separator name="electronic smearing" >
    <i type="int" name="ISMEAR">     1</i>
    <i name="SIGMA">      0.20000000</i>
    <i name="KSPACING">      0.50000000</i>
    <i type="logical" name="KGAMMA"> T  </i>
    <i type="logical" name="KBLOWUP"> T  </i>
   </separator>
   <separator name="electronic projectors" >
    <i type="logical" name="LREAL"> F  </i>
    <v name="ROPT">      0.00000000      0.00000000</v>
    <i type="int" name="LMAXPAW">  -100</i>
    <i type="int" name="LMAXMIX">     2</i>
    <i type="logical" name="NLSPLINE"> F  </i>
   </separator>
   <separator name="electronic startup" >
    <i type="int" name="ISTART">     0</i>
    <i type="int" name="ICHARG">     2</i>
    <i type="int" name="INIWAV">     1</i>
   </separator>
   <separator name="electronic spin" >
    <i type="int" name="ISPIN">     2</i>
    <i type="logical" name="LNONCOLLINEAR"> F  </i>
    <v name="MAGMOM">      1.00000000      1.00000000      1.00000000      1.00000000      1.00000000      1.00000000      1.00000000      1.00000000      1.00000000      1.00000000      1.00000000      1.00000000      1.00000000      1.00000000      1.00000000      1.00000000      1.00000000      1.00000000      1.00000000      1.00000000
      1.00000000      1.00000000      1.00000000      1.00000000      1.00000000      1.00000000      1.00000000      1.00000000      1.00000000      1.00000000      1.00000000      1.00000000      1.00000000      1.00000000</v>
    <i name="NUPDOWN">     -1.00000000</i>
    <i type="logical" name="LSORBIT"> F  </i>
    <v name="SAXIS">      0.00000000      0.00000000      1.00000000</v>
    <i type="logical" name="LSPIRAL"> F  </i>
    <v name="QSPIRAL">      0.00000000      0.00000000      0.00000000</v>
    <i type="logical" name="LZEROZ"> F  </i>
   </separator>
   <separator name="electronic exchange-correlation" >
    <i type="logical" name="LASPH"> F  </i>
    <i type="logical" name="LMETAGGA"> F  </i>
   </separator>
   <separator name="electronic convergence" >
    <i type="int" name="NELM">    60</i>
    <i type="int" name="NELMDL">    -5</i>
    <i type="int" name="NELMIN">     2</i>
    <i name="ENINI">    400.00000000</i>
    <separator name="electronic convergence detail" >
     <i type="logical" name="LDIAG"> T  </i>
     <i type="logical" name="LSUBROT"> F  </i>
     <i name="WEIMIN">      0.00100000</i>
     <i name="EBREAK">      0.00000022</i>
     <i name="DEPER">      0.30000000</i>
     <i type="int" name="NRMM">     4</i>
     <i name="TIME">      0.40000000</i>
    </separator>
   </separator>
   <separator name="electronic mixer" >
    <i name="AMIX">      0.40000000</i>
    <i name="BMIX">      1.00000000</i>
    <i name="AMIN">      0.10000000</i>
    <i name="AMIX_MAG">      1.60000000</i>
    <i name="BMIX_MAG">      1.00000000</i>
    <separator name="electronic mixer details" >
     <i type="int" name="IMIX">     4</i>
     <i type="logical" name="MIXFIRST"> F  </i>
     <i type="int" name="MAXMIX">   -45</i>
     <i name="WC">    100.00000000</i>
     <i type="int" name="INIMIX">     1</i>
     <i type="int" name="MIXPRE">     1</i>
     <i type="int" name="MREMOVE">     5</i>
    </separator>
   </separator>
   <separator name="electronic dipolcorrection" >
    <i type="logical" name="LDIPOL"> F  </i>
    <i type="logical" name="LMONO"> F  </i>
    <i type="int" name="IDIPOL">     0</i>
    <i name="EPSILON">      1.00000000</i>
    <v name="DIPOL">   -100.00000000   -100.00000000   -100.00000000</v>
    <i name="EFIELD">      0.00000000</i>
   </separator>
  </separator>
  <separator name="grids" >
   <i type="int" name="NGX">    28</i>
   <i type="int" name="NGY">    28</i>
   <i type="int" name="NGZ">   150</i>
   <i type="int" name="NGXF">    56</i>
   <i type="int" name="NGYF">    56</i>
   <i type="int" name="NGZF">   300</i>
   <i type="logical" name="ADDGRID"> F  </i>
  </separator>
  <separator name="ionic" >
   <i type="int" name="NSW">   800</i>
   <i type="int" name="IBRION">     2</i>
   <i type="int" name="MDALGO">     0</i>
   <i type="int" name="ISIF">     2</i>
   <i name="PSTRESS">      0.00000000</i>
   <i name="EDIFFG">     -0.03000000</i>
   <i type="int" name="NFREE">     1</i>
   <i name="POTIM">      0.50000000</i>
   <i name="SMASS">     -3.00000000</i>
   <i name="SCALEE">      1.00000000</i>
  </separator>
  <separator name="ionic md" >
   <i name="TEBEG">      0.00010000</i>
   <i name="TEEND">      0.00010000</i>
   <i type="int" name="NBLOCK">     1</i>
   <i type="int" name="KBLOCK">   800</i>
   <i type="int" name="NPACO">   256</i>
   <i name="APACO">     10.00000000</i>
  </separator>
  <separator name="symmetry" >
   <i type="int" name="ISYM">     1</i>
   <i name="SYMPREC">      0.00001000</i>
  </separator>
  <separator name="dos" >
   <i type="int" name="LORBIT">     0</i>
   <v name="RWIGS">     -1.00000000     -1.00000000</v>
   <i type="int" name="NEDOS">   301</i>
   <i name="EMIN">     10.00000000</i>
   <i name="EMAX">    -10.00000000</i>
   <i name="EFERMI">      0.00000000</i>
  </separator>
  <separator name="writing" >
   <i type="int" name="NWRITE">     2</i>
   <i type="logical" name="LWAVE"> F  </i>
   <i type="logical" name="LDOWNSAMPLE"> F  </i>
   <i type="logical" name="LCHARG"> F  </i>
   <i type="logical" name="LPARD"> F  </i>
   <i type="logical" name="LVTOT"> F  </i>
   <i type="logical" name="LVHAR"> F  </i>
   <i type="logical" name="LELF"> F  </i>
   <i type="logical" name="LOPTICS"> F  </i>
   <v name="STM">      0.00000000      0.00000000      0.00000000      0.00000000      0.00000000      0.00000000      0.00000000</v>
  </separator>
  <separator name="performance" >
   <i type="int" name="NPAR">     4</i>
   <i type="int" name="NSIM">     4</i>
   <i type="int" name="NBLK">    -1</i>
   <i type="logical" name="LPLANE"> T  </i>
   <i type="logical" name="LSCALAPACK"> T  </i>
   <i type="logical" name="LSCAAWARE"> F  </i>
   <i type="logical" name="LSCALU"> F  </i>
   <i type="logical" name="LASYNC"> F  </i>
   <i type="logical" name="LORBITALREAL"> F  </i>
  </separator>
  <separator name="miscellaneous" >
   <i type="int" name="IDIOT">     3</i>
   <i type="int" name="PHON_NSTRUCT">    -1</i>
   <i type="logical" name="LMUSIC"> F  </i>
   <v name="POMASS">     63.54600000      1.00000000</v>
   <v name="DARWINR">      0.00000000      0.00000000</v>
   <v name="DARWINV">      1.00000000      1.00000000</v>
   <i type="logical" name="LCORR"> T  </i>
  </separator>
  <i type="logical" name="GGA_COMPAT"> T  </i>
  <i type="logical" name="LBERRY"> F  </i>
  <i type="int" name="ICORELEVEL">     0</i>
  <i type="logical" name="LDAU"> F  </i>
  <i type="int" name="I_CONSTRAINED_M">     0</i>
  <separator name="electronic exchange-correlation" >
   <i type="string" name="GGA">PE</i>
   <i type="int" name="VOSKOWN">     0</i>
   <i type="logical" name="LHFCALC"> F  </i>
   <i type="string" name="PRECFOCK"></i>
   <i type="logical" name="LSYMGRAD"> F  </i>
   <i type="logical" name="LHFONE"> F  </i>
   <i type="logical" name="LRHFCALC"> F  </i>
   <i type="logical" name="LTHOMAS"> F  </i>
   <i type="logical" name="LMODELHF"> F  </i>
   <i type="logical" name="LFOCKACE"> F  </i>
   <i name="ENCUT4O">     -1.00000000</i>
   <i type="int" name="EXXOEP">     0</i>
   <i type="int" name="FOURORBIT">     0</i>
   <i name="AEXX">      0.00000000</i>
   <i name="HFALPHA">      0.00000000</i>
   <i name="MCALPHA">      0.00000000</i>
   <i name="ALDAX">      1.00000000</i>
   <i name="AGGAX">      1.00000000</i>
   <i name="ALDAC">      1.00000000</i>
   <i name="AGGAC">      1.00000000</i>
   <i type="int" name="NKREDX">     1</i>
   <i type="int" name="NKREDY">     1</i>
   <i type="int" name="NKREDZ">     1</i>
   <i type="logical" name="SHIFTRED"> F  </i>
   <i type="logical" name="ODDONLY"> F  </i>
   <i type="logical" name="EVENONLY"> F  </i>
   <i type="int" name="LMAXFOCK">     0</i>
   <i type="int" name="NMAXFOCKAE">     0</i>
   <i type="logical" name="LFOCKAEDFT"> F  </i>
   <i name="HFSCREEN">      0.00000000</i>
   <i name="HFSCREENC">      0.00000000</i>
   <i type="int" name="NBANDSGWLOW">     0</i>
  </separator>
  <separator name="vdW DFT" >
   <i type="logical" name="LUSE_VDW"> F  </i>
   <i name="Zab_VDW">     -0.84910000</i>
   <i name="PARAM1">      0.12340000</i>
   <i name="PARAM2">      1.00000000</i>
   <i name="PARAM3">      0.00000000</i>
  </separator>
  <separator name="model GW" >
   <i type="int" name="MODEL_GW">     0</i>
   <i name="MODEL_EPS0">     11.95007673</i>
   <i name="MODEL_ALPHA">      1.00000000</i>
  </separator>
  <separator name="linear response parameters" >
   <i type="logical" name="LEPSILON"> F  </i>
   <i type="logical" name="LRPA"> F  </i>
   <i type="logical" name="LNABLA"> F  </i>
   <i type="logical" name="LVEL"> F  </i>
   <i name="CSHIFT">      0.10000000</i>
   <i name="OMEGAMAX">     -1.00000000</i>
   <i name="DEG_THRESHOLD">      0.00200000</i>
   <i name="RTIME">     -0.10000000</i>
   <i name="WPLASMAI">      0.00000000</i>
   <v name="DFIELD">      0.00000000      0.00000000      0.00000000</v>
   <v name="WPLASMA">      0.00000000      0.00000000      0.00000000      0.00000000      0.00000000      0.00000000      0.00000000      0.00000000      0.00000000</v>
  </separator>
  <separator name="orbital magnetization" >
   <i type="logical" name="NUCIND"> F  </i>
   <v name="MAGPOS">      0.00000000      0.00000000      0.00000000</v>
   <i type="logical" name="LNICSALL"> T  </i>
   <i type="logical" name="ORBITALMAG"> F  </i>
   <i type="logical" name="LMAGBLOCH"> F  </i>
   <i type="logical" name="LCHIMAG"> F  </i>
   <i type="logical" name="LGAUGE"> T  </i>
   <i type="int" name="MAGATOM">     0</i>
   <v name="MAGDIPOL">      0.00000000      0.00000000      0.00000000</v>
   <v name="AVECCONST">      0.00000000      0.00000000      0.00000000</v>
  </separator>
  <separator name="response functions" >
   <i type="logical" name="LFINITE_TEMPERATURE"> F  </i>
   <i type="logical" name="LADDER"> F  </i>
   <i type="logical" name="LRPAFORCE"> F  </i>
   <i type="logical" name="LFXC"> F  </i>
   <i type="logical" name="LHARTREE"> T  </i>
   <i type="int" name="IBSE">     0</i>
   <v type="int" name="KPOINT">    -1     0     0     0</v>
   <i type="logical" name="LTCTC"> F  </i>
   <i type="logical" name="LTCTE"> F  </i>
   <i type="logical" name="LTETE"> F  </i>
   <i type="logical" name="LTRIPLET"> F  </i>
   <i type="logical" name="LFXCEPS"> F  </i>
   <i type="logical" name="LFXHEG"> F  </i>
   <i type="int" name="NATURALO">     2</i>
   <i type="logical" name="LHOLEGF"> F  </i>
   <i type="logical" name="L2ORDER"> F  </i>
   <i type="logical" name="LDMP1"> F  </i>
   <i type="logical" name="LMP2LT"> F  </i>
   <i type="logical" name="LSMP2LT"> F  </i>
   <i type="logical" name="LGWLF"> F  </i>
   <i name="ENCUTGW">     -2.00000000</i>
   <i name="ENCUTGWSOFT">     -2.00000000</i>
   <i name="ENCUTLF">     -1.00000000</i>
   <i type="logical" name="LESF_SPLINES"> F  </i>
   <i type="int" name="LMAXMP2">    -1</i>
   <i name="SCISSOR">      0.00000000</i>
   <i type="int" name="NOMEGA">     0</i>
   <i type="int" name="NOMEGAR">     0</i>
   <i type="int" name="NBANDSGW">    -1</i>
   <i type="int" name="NBANDSO">    -1</i>
   <i type="int" name="NBANDSV">    -1</i>
   <i type="int" name="NELMGW">     1</i>
   <i type="int" name="NELMHF">     1</i>
   <i type="int" name="DIM">     3</i>
   <i type="int" name="IESPILON">     4</i>
   <i type="int" name="ANTIRES">     0</i>
   <i name="OMEGAMAX">    -30.00000000</i>
   <i name="OMEGAMIN">    -30.00000000</i>
   <i name="OMEGATL">   -200.00000000</i>
   <i type="int" name="OMEGAGRID">     0</i>
   <i name="CSHIFT">     -0.10000000</i>
   <i type="logical" name="LSELFENERGY"> F  </i>
   <i type="logical" name="LSPECTRAL"> F  </i>
   <i type="logical" name="LSPECTRALGW"> F  </i>
   <i type="logical" name="LSINGLES"> F  </i>
   <i type="logical" name="LFERMIGW"> F  </i>
   <i type="logical" name="ODDONLYGW"> F  </i>
   <i type="logical" name="EVENONLYGW"> F  </i>
   <i type="int" name="NKREDLFX">     1</i>
   <i type="int" name="NKREDLFY">     1</i>
   <i type="int" name="NKREDLFZ">     1</i>
   <i type="int" name="MAXMEM">  2800</i>
   <i type="int" name="TELESCOPE">     0</i>
   <i type="int" name="NTAUPAR">    -1</i>
   <i type="int" name="NOMEGAPAR">    -1</i>
   <i name="DAMP_NEWTON">      0.80000001</i>
   <i name="LAMBDA">      1.00000000</i>
  </separator>
  <separator name="External order field" >
   <i name="OFIELD_KAPPA">      0.00000000</i>
   <v name="OFIELD_K">      0.00000000      0.00000000      0.00000000</v>
   <i name="OFIELD_Q6_NEAR">      0.00000000</i>
   <i name="OFIELD_Q6_FAR">      0.00000000</i>
   <i name="OFIELD_A">      0.00000000</i>
  </separator>
  <separator name="optional k-points parameters" >
   <i type="int" name="KPOINTS_OPT_MODE">     1</i>
   <i type="logical" name="LKPOINTS_OPT"> F  </i>
  </separator>
 </parameters>
 <atominfo>
  <atoms>      34 </atoms>
  <types>       2 </types>
  <array name="atoms" >
   <dimension dim="1">ion</dimension>
   <field type="string">element</field>
   <field type="int">atomtype</field>
   <set>
    <rc><c>Cu</c><c>   1</c></rc>
    <rc><c>Cu</c><c>   1</c></rc>
    <rc><c>Cu</c><c>   1</c></rc>
    <rc><c>Cu</c><c>   1</c></rc>
    <rc><c>Cu</c><c>   1</c></rc>
    <rc><c>Cu</c><c>   1</c></rc>
    <rc><c>Cu</c><c>   1</c></rc>
    <rc><c>Cu</c><c>   1</c></rc>
    <rc><c>Cu</c><c>   1</c></rc>
    <rc><c>Cu</c><c>   1</c></rc>
    <rc><c>Cu</c><c>   1</c></rc>
    <rc><c>Cu</c><c>   1</c></rc>
    <rc><c>Cu</c><c>   1</c></rc>
    <rc><c>Cu</c><c>   1</c></rc>
    <rc><c>Cu</c><c>   1</c></rc>
    <rc><c>Cu</c><c>   1</c></rc>
    <rc><c>Cu</c><c>   1</c></rc>
    <rc><c>Cu</c><c>   1</c></rc>
    <rc><c>Cu</c><c>   1</c></rc>
    <rc><c>Cu</c><c>   1</c></rc>
    <rc><c>Cu</c><c>   1</c></rc>
    <rc><c>Cu</c><c>   1</c></rc>
    <rc><c>Cu</c><c>   1</c></rc>
    <rc><c>Cu</c><c>   1</c></rc>
    <rc><c>Cu</c><c>   1</c></rc>
    <rc><c>Cu</c><c>   1</c></rc>
    <rc><c>Cu</c><c>   1</c></rc>
    <rc><c>Cu</c><c>   1</c></rc>
    <rc><c>Cu</c><c>   1</c></rc>
    <rc><c>Cu</c><c>   1</c></rc>
    <rc><c>Cu</c><c>   1</c></rc>
    <rc><c>Cu</c><c>   1</c></rc>
    <rc><c>H </c><c>   2</c></rc>
    <rc><c>H </c><c>   2</c></rc>
   </set>
  </array>
  <array name="atomtypes" >
   <dimension dim="1">type</dimension>
   <field type="int">atomspertype</field>
   <field type="string">element</field>
   <field>mass</field>
   <field>valence</field>
   <field type="string">pseudopotential</field>
   <set>
    <rc><c>  32</c><c>Cu</c><c>     63.54600000</c><c>     11.00000000</c><c>  PAW_PBE Cu 22Jun2005                  </c></rc>
    <rc><c>   2</c><c>H </c><c>      1.00000000</c><c>      1.00000000</c><c>  PAW_PBE H 15Jun2001                   </c></rc>
   </set>
  </array>
 </atominfo>
 <structure name="initialpos" >
  <crystal>
   <varray name="basis" >
    <v>       5.13359547       0.00000000       0.00000000 </v>
    <v>       2.56679773       4.44582409       0.00000000 </v>
    <v>       0.00000000       0.00000000      29.67047119 </v>
   </varray>
   <i name="volume">    677.17101477 </i>
   <varray name="rec_basis" >
    <v>       0.19479525      -0.11246509       0.00000000 </v>
    <v>       0.00000000       0.22493018       0.00000000 </v>
    <v>       0.00000000       0.00000000       0.03370354 </v>
   </varray>
  </crystal>
  <varray name="positions" >
   <v>       0.00000000       0.00000000       0.00000000 </v>
   <v>       1.00000000       0.50000000       0.00000000 </v>
   <v>       0.50000000       0.00000000       0.00000000 </v>
   <v>       0.50000000       0.50000000       0.00000000 </v>
   <v>       0.16666667       0.16666667       0.07063526 </v>
   <v>       0.16666667       0.66666667       0.07063526 </v>
   <v>       0.66666667       0.16666667       0.07063526 </v>
   <v>       0.66666667       0.66666667       0.07063526 </v>
   <v>       0.33333333       0.33333333       0.13847021 </v>
   <v>       0.33333333       0.83333333       0.13847021 </v>
   <v>       0.83333333       0.33333333       0.13847021 </v>
   <v>       0.83333333       0.83333333       0.13847021 </v>
   <v>       0.00000000       0.00000000       0.20667428 </v>
   <v>       1.00000000       0.50000000       0.20667428 </v>
   <v>       0.50000000       0.00000000       0.20667428 </v>
   <v>       0.50000000       0.50000000       0.20667428 </v>
   <v>       0.16666667       0.16666667       0.27488859 </v>
   <v>       0.16666667       0.66666667       0.27488859 </v>
   <v>       0.66666667       0.16666667       0.27488859 </v>
   <v>       0.66666667       0.66666667       0.27488859 </v>
   <v>       0.33333333       0.33333333       0.34319917 </v>
   <v>       0.33333333       0.83333333       0.34319917 </v>
   <v>       0.83333333       0.33333333       0.34319917 </v>
   <v>       0.83333333       0.83333333       0.34319917 </v>
   <v>       0.00000000       0.00000000       0.41105828 </v>
   <v>       1.00000000       0.50000000       0.41105828 </v>
   <v>       0.50000000       0.00000000       0.41105828 </v>
   <v>       0.50000000       0.50000000       0.41105828 </v>
   <v>       0.16666667       0.16666667       0.48054462 </v>
   <v>       0.16666667       0.66666667       0.48054462 </v>
   <v>       0.66666667       0.16666667       0.48054462 </v>
   <v>       0.66666667       0.66666667       0.48054462 </v>
   <v>       0.91666667       0.66666667       0.53425930 </v>
   <v>       0.91666667       0.66666667       0.55940215 </v>
  </varray>
 </structure>
 <calculation>
  <scstep>
   <time name="dav">    6.11    6.16</time>
   <time name="total">    6.20    6.25</time>
   <energy>
    <i name="alphaZ">   1114.72537883 </i>
    <i name="ewald"> 216165.59437013 </i>
    <i name="hartreedc">-260197.34566378 </i>
    <i name="XCdc">   1471.88622580 </i>
    <i name="pawpsdc">  39302.70853331 </i>
    <i name="pawaedc"> -42689.07521165 </i>
    <i name="eentropy">     -0.00723437 </i>
    <i name="bandstr">   3742.93779741 </i>
    <i name="atom">  44535.60175172 </i>
    <i name="e_fr_energy">   3447.02594740 </i>
    <i name="e_wo_entrp">   3447.03318177 </i>
    <i name="e_0_energy">   3447.02835885 </i>
   </energy>
  </scstep>
  <scstep>
   <time name="dav">    6.02    6.07</time>
   <time name="total">    6.02    6.08</time>
   <energy>
    <i name="e_fr_energy">    485.72112648 </i>
    <i name="e_wo_entrp">    485.71528364 </i>
    <i name="e_0_energy">    485.71917887 </i>
   </energy>
  </scstep>
  <scstep>
   <time name="dav">    6.03    6.08</time>
   <time name="total">    6.03    6.08</time>
   <energy>
    <i name="e_fr_energy">    -92.59743375 </i>
    <i name="e_wo_entrp">    -92.60446513 </i>
    <i name="e_0_energy">    -92.59977755 </i>
   </energy>
  </scstep>
  <scstep>
   <time name="dav">    6.45    6.50</time>
   <time name="total">    6.45    6.50</time>
   <energy>
    <i name="e_fr_energy">   -138.01010124 </i>
    <i name="e_wo_entrp">   -138.03391254 </i>
    <i name="e_0_energy">   -138.01803834 </i>
   </energy>
  </scstep>
  <scstep>
   <time name="dav">    6.49    6.54</time>
   <time name="total">    6.88    6.94</time>
   <energy>
    <i name="e_fr_energy">   -139.11194962 </i>
    <i name="e_wo_entrp">   -139.13732309 </i>
    <i name="e_0_energy">   -139.12040744 </i>
   </energy>
  </scstep>
  <scstep>
   <time name="dav">    6.61    6.67</time>
   <time name="total">    7.08    7.14</time>
   <energy>
    <i name="e_fr_energy">   -115.22448353 </i>
    <i name="e_wo_entrp">   -115.18217642 </i>
    <i name="e_0_energy">   -115.21038116 </i>
   </energy>
  </scstep>
  <scstep>
   <time name="dav">    6.71    6.76</time>
   <time name="total">    7.17    7.22</time>
   <energy>
    <i name="e_fr_energy">   -102.71525469 </i>
    <i name="e_wo_entrp">   -102.70243230 </i>
    <i name="e_0_energy">   -102.71098056 </i>
   </energy>
  </scstep>
  <scstep>
   <time name="dav">    7.27    7.33</time>
   <time name="total">    7.72    7.78</time>
   <energy>
    <i name="e_fr_energy">   -109.14251042 </i>
    <i name="e_wo_entrp">   -109.17628486 </i>
    <i name="e_0_energy">   -109.15376857 </i>
   </energy>
  </scstep>
  <scstep>
   <time name="dav">    7.94    8.01</time>
   <time name="total">    8.39    8.46</time>
   <energy>
    <i name="e_fr_energy">    -99.32016835 </i>
    <i name="e_wo_entrp">    -99.27324661 </i>
    <i name="e_0_energy">    -99.30452777 </i>
   </energy>
  </scstep>
  <scstep>
   <time name="dav">    7.58    7.64</time>
   <time name="total">    8.02    8.09</time>
   <energy>
    <i name="e_fr_energy">   -100.03704396 </i>
    <i name="e_wo_entrp">   -100.05118430 </i>
    <i name="e_0_energy">   -100.04175741 </i>
   </energy>
  </scstep>
  <scstep>
   <time name="dav">    6.96    7.01</time>
   <time name="total">    7.40    7.46</time>
   <energy>
    <i name="e_fr_energy">   -101.85430116 </i>
    <i name="e_wo_entrp">   -101.91896636 </i>
    <i name="e_0_energy">   -101.87585623 </i>
   </energy>
  </scstep>
  <scstep>
   <time name="dav">    6.88    6.93</time>
   <time name="total">    7.34    7.40</time>
   <energy>
    <i name="e_fr_energy">   -101.52621472 </i>
    <i name="e_wo_entrp">   -101.52477789 </i>
    <i name="e_0_energy">   -101.52573578 </i>
   </energy>
  </scstep>
  <scstep>
   <time name="dav">    8.99    9.07</time>
   <time name="total">    9.46    9.54</time>
   <energy>
    <i name="e_fr_energy">   -102.34914407 </i>
    <i name="e_wo_entrp">   -102.38779185 </i>
    <i name="e_0_energy">   -102.36202666 </i>
   </energy>
  </scstep>
  <scstep>
   <time name="dav">    8.55    8.63</time>
   <time name="total">    9.00    9.08</time>
   <energy>
    <i name="e_fr_energy">   -104.86949882 </i>
    <i name="e_wo_entrp">   -104.87098871 </i>
    <i name="e_0_energy">   -104.86999545 </i>
   </energy>
  </scstep>
  <scstep>
   <time name="dav">    7.43    7.49</time>
   <time name="total">    7.88    7.95</time>
   <energy>
    <i name="e_fr_energy">   -109.12394298 </i>
    <i name="e_wo_entrp">   -109.13336390 </i>
    <i name="e_0_energy">   -109.12708328 </i>
   </energy>
  </scstep>
  <scstep>
   <time name="dav">    7.16    7.22</time>
   <time name="total">    7.62    7.68</time>
   <energy>
    <i name="e_fr_energy">   -112.26866379 </i>
    <i name="e_wo_entrp">   -112.27300013 </i>
    <i name="e_0_energy">   -112.27010923 </i>
   </energy>
  </scstep>
  <scstep>
   <time name="dav">    7.00    7.06</time>
   <time name="total">    7.46    7.52</time>
   <energy>
    <i name="e_fr_energy">   -113.95869774 </i>
    <i name="e_wo_entrp">   -113.94185686 </i>
    <i name="e_0_energy">   -113.95308411 </i>
   </energy>
  </scstep>
  <scstep>
   <time name="dav">    6.87    6.93</time>
   <time name="total">    7.33    7.39</time>
   <energy>
    <i name="e_fr_energy">   -114.87938027 </i>
    <i name="e_wo_entrp">   -114.86304011 </i>
    <i name="e_0_energy">   -114.87393355 </i>
   </energy>
  </scstep>
  <scstep>
   <time name="dav">    6.91    6.97</time>
   <time name="total">    7.36    7.42</time>
   <energy>
    <i name="e_fr_energy">   -115.68851125 </i>
    <i name="e_wo_entrp">   -115.66380927 </i>
    <i name="e_0_energy">   -115.68027725 </i>
   </energy>
  </scstep>
  <scstep>
   <time name="dav">    7.42    7.48</time>
   <time name="total">    7.86    7.92</time>
   <energy>
    <i name="e_fr_energy">   -116.55665566 </i>
    <i name="e_wo_entrp">   -116.52861491 </i>
    <i name="e_0_energy">   -116.54730874 </i>
   </energy>
  </scstep>
  <scstep>
   <time name="dav">    7.52    7.59</time>
   <time name="total">    7.97    8.04</time>
   <energy>
    <i name="e_fr_energy">   -117.36104465 </i>
    <i name="e_wo_entrp">   -117.33309695 </i>
    <i name="e_0_energy">   -117.35172875 </i>
   </energy>
  </scstep>
  <scstep>
   <time name="dav">    7.45    7.51</time>
   <time name="total">    7.90    7.96</time>
   <energy>
    <i name="e_fr_energy">   -117.75053619 </i>
    <i name="e_wo_entrp">   -117.72576110 </i>
    <i name="e_0_energy">   -117.74227782 </i>
   </energy>
  </scstep>
  <scstep>
   <time name="dav">    7.13    7.19</time>
   <time name="total">    7.58    7.64</time>
   <energy>
    <i name="e_fr_energy">   -118.18734294 </i>
    <i name="e_wo_entrp">   -118.16659453 </i>
    <i name="e_0_energy">   -118.18042680 </i>
   </energy>
  </scstep>
  <scstep>
   <time name="dav">    7.53    7.59</time>
   <time name="total">    7.98    8.04</time>
   <energy>
    <i name="e_fr_energy">   -118.69209303 </i>
    <i name="e_wo_entrp">   -118.67286021 </i>
    <i name="e_0_energy">   -118.68568209 </i>
   </energy>
  </scstep>
  <scstep>
   <time name="dav">    7.84    7.91</time>
   <time name="total">    8.29    8.36</time>
   <energy>
    <i name="e_fr_energy">   -119.73030864 </i>
    <i name="e_wo_entrp">   -119.71032072 </i>
    <i name="e_0_energy">   -119.72364600 </i>
   </energy>
  </scstep>
  <scstep>
   <time name="dav">    7.28    7.34</time>
   <time name="total">    7.74    7.81</time>
   <energy>
    <i name="e_fr_energy">   -120.46945107 </i>
    <i name="e_wo_entrp">   -120.44976843 </i>
    <i name="e_0_energy">   -120.46289019 </i>
   </energy>
  </scstep>
  <scstep>
   <time name="dav">    6.43    6.48</time>
   <time name="total">    6.88    6.93</time>
   <energy>
    <i name="e_fr_energy">   -120.75827899 </i>
    <i name="e_wo_entrp">   -120.73929923 </i>
    <i name="e_0_energy">   -120.75195241 </i>
   </energy>
  </scstep>
  <scstep>
   <time name="dav">    6.79    6.85</time>
   <time name="total">    7.24    7.30</time>
   <energy>
    <i name="e_fr_energy">   -120.81516944 </i>
    <i name="e_wo_entrp">   -120.79574188 </i>
    <i name="e_0_energy">   -120.80869359 </i>
   </energy>
  </scstep>
  <scstep>
   <time name="dav">    6.47    6.52</time>
   <time name="total">    6.91    6.96</time>
   <energy>
    <i name="e_fr_energy">   -120.82171651 </i>
    <i name="e_wo_entrp">   -120.80281233 </i>
    <i name="e_0_energy">   -120.81541512 </i>
   </energy>
  </scstep>
  <scstep>
   <time name="dav">    6.29    6.34</time>
   <time name="total">    6.75    6.81</time>
   <energy>
    <i name="e_fr_energy">   -120.82838925 </i>
    <i name="e_wo_entrp">   -120.80936931 </i>
    <i name="e_0_energy">   -120.82204927 </i>
   </energy>
  </scstep>
  <scstep>
   <time name="dav">    4.85    4.89</time>
   <time name="total">    5.30    5.34</time>
   <energy>
    <i name="e_fr_energy">   -120.83072632 </i>
    <i name="e_wo_entrp">   -120.81165905 </i>
    <i name="e_0_energy">   -120.82437056 </i>
   </energy>
  </scstep>
  <scstep>
   <time name="dav">    5.25    5.29</time>
   <time name="total">    5.70    5.75</time>
   <energy>
    <i name="e_fr_energy">   -120.83048132 </i>
    <i name="e_wo_entrp">   -120.81138634 </i>
    <i name="e_0_energy">   -120.82411633 </i>
   </energy>
  </scstep>
  <scstep>
   <time name="dav">    4.49    4.52</time>
   <time name="total">    4.56    4.60</time>
   <energy>
    <i name="alphaZ">   1114.72537883 </i>
    <i name="ewald"> 216165.59437013 </i>
    <i name="hartreedc">-259693.61414051 </i>
    <i name="XCdc">   1433.78127996 </i>
    <i name="pawpsdc">  42128.51889745 </i>
    <i name="pawaedc"> -45580.27052054 </i>
    <i name="eentropy">     -0.01914639 </i>
    <i name="bandstr">   -225.14852264 </i>
    <i name="atom">  44535.60175172 </i>
    <i name="e_fr_energy">   -120.83065197 </i>
    <i name="e_wo_entrp">   -120.81150558 </i>
    <i name="e_0_energy">   -120.82426984 </i>
   </energy>
  </scstep>
  <structure>
   <crystal>
    <varray name="basis" >
     <v>       5.13359547       0.00000000       0.00000000 </v>
     <v>       2.56679773       4.44582409       0.00000000 </v>
     <v>       0.00000000       0.00000000      29.67047119 </v>
    </varray>
    <i name="volume">    677.17101477 </i>
    <varray name="rec_basis" >
     <v>       0.19479525      -0.11246509       0.00000000 </v>
     <v>       0.00000000       0.22493018       0.00000000 </v>
     <v>       0.00000000       0.00000000       0.03370354 </v>
    </varray>
   </crystal>
   <varray name="positions" >
    <v>       0.00000000       0.00000000       0.00000000 </v>
    <v>       1.00000000       0.50000000       0.00000000 </v>
    <v>       0.50000000       0.00000000       0.00000000 </v>
    <v>       0.50000000       0.50000000       0.00000000 </v>
    <v>       0.16666667       0.16666667       0.07063526 </v>
    <v>       0.16666667       0.66666667       0.07063526 </v>
    <v>       0.66666667       0.16666667       0.07063526 </v>
    <v>       0.66666667       0.66666667       0.07063526 </v>
    <v>       0.33333333       0.33333333       0.13847021 </v>
    <v>       0.33333333       0.83333333       0.13847021 </v>
    <v>       0.83333333       0.33333333       0.13847021 </v>
    <v>       0.83333333       0.83333333       0.13847021 </v>
    <v>       0.00000000       0.00000000       0.20667428 </v>
    <v>       1.00000000       0.50000000       0.20667428 </v>
    <v>       0.50000000       0.00000000       0.20667428 </v>
    <v>       0.50000000       0.50000000       0.20667428 </v>
    <v>       0.16666667       0.16666667       0.27488859 </v>
    <v>       0.16666667       0.66666667       0.27488859 </v>
    <v>       0.66666667       0.16666667       0.27488859 </v>
    <v>       0.66666667       0.66666667       0.27488859 </v>
    <v>       0.33333333       0.33333333       0.34319917 </v>
    <v>       0.33333333       0.83333333       0.34319917 </v>
    <v>       0.83333333       0.33333333       0.34319917 </v>
    <v>       0.83333333       0.83333333       0.34319917 </v>
    <v>       0.00000000       0.00000000       0.41105828 </v>
    <v>       1.00000000       0.50000000       0.41105828 </v>
    <v>       0.50000000       0.00000000       0.41105828 </v>
    <v>       0.50000000       0.50000000       0.41105828 </v>
    <v>       0.16666667       0.16666667       0.48054462 </v>
    <v>       0.16666667       0.66666667       0.48054462 </v>
    <v>       0.66666667       0.16666667       0.48054462 </v>
    <v>       0.66666667       0.66666667       0.48054462 </v>
    <v>       0.91666667       0.66666667       0.53425930 </v>
    <v>       0.91666667       0.66666667       0.55940215 </v>
   </varray>
  </structure>
  <varray name="forces" >
   <v>       0.01421931       0.00072439       0.14524908 </v>
   <v>      -0.00000000      -0.00757753       0.14960591 </v>
   <v>      -0.01421931       0.00072439       0.14524908 </v>
   <v>      -0.00000000       0.00790655       0.14095023 </v>
   <v>      -0.00000000       0.00191467      -0.13464748 </v>
   <v>       0.00239183      -0.00318641      -0.13094159 </v>
   <v>      -0.00000000       0.00384791      -0.14689762 </v>
   <v>      -0.00239183      -0.00318641      -0.13094159 </v>
   <v>       0.00678624      -0.00907498      -0.01018197 </v>
   <v>      -0.00000000       0.00277984      -0.01106981 </v>
   <v>      -0.00678624      -0.00907498      -0.01018197 </v>
   <v>      -0.00000000       0.01215978      -0.02263192 </v>
   <v>       0.00891001       0.00413870       0.01262200 </v>
   <v>      -0.00000000      -0.00763021       0.02283940 </v>
   <v>      -0.00891001       0.00413870       0.01262200 </v>
   <v>      -0.00000000      -0.00092917      -0.01639380 </v>
   <v>       0.00000000      -0.01247395      -0.01687975 </v>
   <v>       0.03086510      -0.00362449       0.01607748 </v>
   <v>      -0.00000000       0.02313845       0.00559977 </v>
   <v>      -0.03086510      -0.00362449       0.01607748 </v>
   <v>       0.01385017      -0.01391321       0.02947510 </v>
   <v>      -0.00000000       0.00450481       0.04277322 </v>
   <v>      -0.01385017      -0.01391321       0.02947510 </v>
   <v>      -0.00000000       0.02741029      -0.02552357 </v>
   <v>      -0.02023373      -0.01031223       0.06397294 </v>
   <v>      -0.00000000       0.02167813       0.02211213 </v>
   <v>       0.02023373      -0.01031223       0.06397294 </v>
   <v>      -0.00000000      -0.00619051       0.07028776 </v>
   <v>       0.00000000      -0.15469901      -0.17410815 </v>
   <v>       0.24752659       0.00943452      -0.27944301 </v>
   <v>      -0.00000000       0.13911688      -0.24435403 </v>
   <v>      -0.24752659       0.00943452      -0.27944301 </v>
   <v>      -0.00000000      -0.00119332      -0.58709034 </v>
   <v>      -0.00000000      -0.00213620       1.23176800 </v>
  </varray>
  <varray name="stress" >
   <v>     -31.31781727       0.00000000       0.00000000 </v>
   <v>       0.00000000     -31.14144493      -0.03961374 </v>
   <v>       0.00000000      -0.03960800      -4.75663466 </v>
  </varray>
  <energy>
   <i name="e_fr_energy">   -134.84962128 </i>
   <i name="e_wo_entrp">   -134.83047490 </i>
   <i name="e_0_energy">   -134.84323916 </i>
  </energy>
  <time name="totalsc">  251.02  253.08</time>
 </calculation>
 <calculation>
  <scstep>
   <time name="dav">    6.18    6.23</time>
   <time name="total">    6.63    6.68</time>
   <energy>
    <i name="alphaZ">   1114.72537883 </i>
    <i name="ewald"> 216424.25178034 </i>
    <i name="hartreedc">-259952.48892232 </i>
    <i name="XCdc">   1433.79676087 </i>
    <i name="pawpsdc">  42128.50243189 </i>
    <i name="pawaedc"> -45580.29221622 </i>
    <i name="eentropy">     -0.02038582 </i>
    <i name="bandstr">   -224.88793743 </i>
    <i name="atom">  44535.60175172 </i>
    <i name="e_fr_energy">   -120.81135814 </i>
    <i name="e_wo_entrp">   -120.79097231 </i>
    <i name="e_0_energy">   -120.80456286 </i>
   </energy>
  </scstep>
  <scstep>
   <time name="dav">    7.82    7.89</time>
   <time name="total">    8.27    8.34</time>
   <energy>
    <i name="e_fr_energy">   -120.83114951 </i>
    <i name="e_wo_entrp">   -120.80998374 </i>
    <i name="e_0_energy">   -120.82409425 </i>
   </energy>
  </scstep>
  <scstep>
   <time name="dav">    7.02    7.07</time>
   <time name="total">    7.46    7.52</time>
   <energy>
    <i name="e_fr_energy">   -120.84332846 </i>
    <i name="e_wo_entrp">   -120.82410842 </i>
    <i name="e_0_energy">   -120.83692178 </i>
   </energy>
  </scstep>
  <scstep>
   <time name="dav">    7.00    7.06</time>
   <time name="total">    7.45    7.51</time>
   <energy>
    <i name="e_fr_energy">   -120.83850695 </i>
    <i name="e_wo_entrp">   -120.81629026 </i>
    <i name="e_0_energy">   -120.83110139 </i>
   </energy>
  </scstep>
  <scstep>
   <time name="dav">    8.54    8.61</time>
   <time name="total">    8.98    9.06</time>
   <energy>
    <i name="e_fr_energy">   -120.83464632 </i>
    <i name="e_wo_entrp">   -120.81348353 </i>
    <i name="e_0_energy">   -120.82759206 </i>
   </energy>
  </scstep>
  <scstep>
   <time name="dav">    8.26    8.33</time>
   <time name="total">    8.71    8.78</time>
   <energy>
    <i name="e_fr_energy">   -120.82983425 </i>
    <i name="e_wo_entrp">   -120.80970657 </i>
    <i name="e_0_energy">   -120.82312502 </i>
   </energy>
  </scstep>
  <scstep>
   <time name="dav">    9.29    9.36</time>
   <time name="total">    9.73    9.81</time>
   <energy>
    <i name="e_fr_energy">   -120.82843150 </i>
    <i name="e_wo_entrp">   -120.80715033 </i>
    <i name="e_0_energy">   -120.82133778 </i>
   </energy>
  </scstep>
  <scstep>
   <time name="dav">    6.78    6.83</time>
   <time name="total">    6.85    6.91</time>
   <energy>
    <i name="alphaZ">   1114.72537883 </i>
    <i name="ewald"> 216424.25178034 </i>
    <i name="hartreedc">-259947.02387868 </i>
    <i name="XCdc">   1433.66245761 </i>
    <i name="pawpsdc">  42134.56280638 </i>
    <i name="pawaedc"> -45586.57794484 </i>
    <i name="eentropy">     -0.02078562 </i>
    <i name="bandstr">   -230.00987291 </i>
    <i name="atom">  44535.60175172 </i>
    <i name="e_fr_energy">   -120.82830718 </i>
    <i name="e_wo_entrp">   -120.80752156 </i>
    <i name="e_0_energy">   -120.82137864 </i>
   </energy>
  </scstep>
  <structure>
   <crystal>
    <varray name="basis" >
     <v>       5.13359547       0.00000000       0.00000000 </v>
     <v>       2.56679773       4.44582409       0.00000000 </v>
     <v>       0.00000000       0.00000000      29.67047119 </v>
    </varray>
    <i name="volume">    677.17101477 </i>
    <varray name="rec_basis" >
     <v>       0.19479525      -0.11246509       0.00000000 </v>
     <v>       0.00000000       0.22493018       0.00000000 </v>
     <v>       0.00000000       0.00000000       0.03370354 </v>
    </varray>
   </crystal>
   <varray name="positions" >
    <v>       0.00012969       0.00000786       0.00023617 </v>
    <v>       0.00004111       0.49991777       0.00024325 </v>
    <v>       0.49986244       0.00000786       0.00023617 </v>
    <v>       0.49995710       0.50008580       0.00022918 </v>
    <v>       0.16665628       0.16668744       0.07041633 </v>
    <v>       0.16670643       0.66663209       0.07042236 </v>
    <v>       0.66664579       0.16670842       0.07039642 </v>
    <v>       0.66666148       0.66663209       0.07042236 </v>
    <v>       0.33344634       0.33323486       0.13845366 </v>
    <v>       0.33331825       0.83336350       0.13845221 </v>
    <v>       0.83331880       0.33323486       0.13845366 </v>
    <v>       0.83326736       0.83346528       0.13843341 </v>
    <v>       0.00006128       0.00004491       0.20669480 </v>
    <v>       0.00004140       0.49991720       0.20671141 </v>
    <v>       0.49989381       0.00004491       0.20669480 </v>
    <v>       0.50000504       0.49998992       0.20664762 </v>
    <v>       0.16673435       0.16653131       0.27486114 </v>
    <v>       0.16697638       0.66662734       0.27491473 </v>
    <v>       0.66654113       0.16691775       0.27489769 </v>
    <v>       0.66639628       0.66662734       0.27491473 </v>
    <v>       0.33353898       0.33318236       0.34324710 </v>
    <v>       0.33330889       0.83338222       0.34326872 </v>
    <v>       0.83327866       0.33318236       0.34324710 </v>
    <v>       0.83318462       0.83363077       0.34315767 </v>
    <v>      -0.00013420      -0.00011190       0.41116230 </v>
    <v>       0.99988238       0.50023523       0.41109423 </v>
    <v>       0.50024610      -0.00011190       0.41116230 </v>
    <v>       0.50003359       0.49993283       0.41117256 </v>
    <v>       0.16750600       0.16498799       0.48026153 </v>
    <v>       0.16894159       0.66676904       0.48009026 </v>
    <v>       0.66591187       0.16817626       0.48014731 </v>
    <v>       0.66428936       0.66676904       0.48009026 </v>
    <v>       0.91667314       0.66665372       0.53330472 </v>
    <v>       0.91667826       0.66664349       0.56140494 </v>
   </varray>
  </structure>
  <varray name="forces" >
   <v>       0.00695277      -0.00016948       0.08432910 </v>
   <v>      -0.00000000      -0.00290291       0.08861089 </v>
   <v>      -0.00695277      -0.00016948       0.08432910 </v>
   <v>      -0.00000000       0.00462916       0.08093292 </v>
   <v>      -0.00000000       0.00134680      -0.04878443 </v>
   <v>       0.00055584      -0.00180239      -0.04857290 </v>
   <v>      -0.00000000       0.00133191      -0.06076346 </v>
   <v>      -0.00055584      -0.00180239      -0.04857290 </v>
   <v>       0.00000717      -0.00280532      -0.03212314 </v>
   <v>      -0.00000000       0.00130025      -0.03225604 </v>
   <v>      -0.00000717      -0.00280532      -0.03212314 </v>
   <v>      -0.00000000       0.00209360      -0.03408767 </v>
   <v>       0.00022699      -0.00120485       0.00325279 </v>
   <v>      -0.00000000       0.00216622       0.00844181 </v>
   <v>      -0.00022699      -0.00120485       0.00325279 </v>
   <v>      -0.00000000       0.00046437      -0.01157092 </v>
   <v>      -0.00000000      -0.00357620       0.00135425 </v>
   <v>       0.01189977      -0.00193684       0.00818230 </v>
   <v>       0.00000000       0.01024539      -0.00471442 </v>
   <v>      -0.01189977      -0.00193684       0.00818230 </v>
   <v>       0.00418244      -0.00542235       0.02716483 </v>
   <v>      -0.00000000       0.00222777       0.03794495 </v>
   <v>      -0.00418244      -0.00542235       0.02716483 </v>
   <v>       0.00000000       0.01079620      -0.00196754 </v>
   <v>      -0.01252619      -0.00187801      -0.00522704 </v>
   <v>       0.00000000       0.00817891      -0.01704498 </v>
   <v>       0.01252619      -0.00187801      -0.00522704 </v>
   <v>      -0.00000000      -0.01025125      -0.02518295 </v>
   <v>      -0.00000000      -0.04737756      -0.11526384 </v>
   <v>       0.06631645       0.00383973      -0.14169672 </v>
   <v>      -0.00000000       0.04512907      -0.15747931 </v>
   <v>      -0.06631645       0.00383973      -0.14169672 </v>
   <v>      -0.00000000      -0.00120829       1.13315023 </v>
   <v>      -0.00000000      -0.00183444      -0.63193795 </v>
  </varray>
  <varray name="stress" >
   <v>     -30.70648613       0.00000000       0.00000000 </v>
   <v>       0.00000000     -30.54660924      -0.02847589 </v>
   <v>       0.00000000      -0.02847019      -7.72771788 </v>
  </varray>
  <energy>
   <i name="e_fr_energy">   -134.86614044 </i>
   <i name="e_wo_entrp">   -134.84535482 </i>
   <i name="e_0_energy">   -134.85921190 </i>
  </energy>
  <time name="totalsc">   75.63   76.26</time>
 </calculation>
 <calculation>
  <scstep>
   <time name="dav">    6.13    6.18</time>
   <time name="total">    6.59    6.64</time>
   <energy>
    <i name="alphaZ">   1114.72537883 </i>
    <i name="ewald"> 216308.73203042 </i>
    <i name="hartreedc">-259831.41698829 </i>
    <i name="XCdc">   1433.65726128 </i>
    <i name="pawpsdc">  42134.88814351 </i>
    <i name="pawaedc"> -45586.92845921 </i>
    <i name="eentropy">     -0.02029538 </i>
    <i name="bandstr">   -230.08949999 </i>
    <i name="atom">  44535.60175172 </i>
    <i name="e_fr_energy">   -120.85067710 </i>
    <i name="e_wo_entrp">   -120.83038172 </i>
    <i name="e_0_energy">   -120.84391197 </i>
   </energy>
  </scstep>
  <scstep>
   <time name="dav">    7.99    8.06</time>
   <time name="total">    8.44    8.51</time>
   <energy>
    <i name="e_fr_energy">   -120.85541757 </i>
    <i name="e_wo_entrp">   -120.83540490 </i>
    <i name="e_0_energy">   -120.84874668 </i>
   </energy>
  </scstep>
  <scstep>
   <time name="dav">    6.99    7.05</time>
   <time name="total">    7.43    7.49</time>
   <energy>
    <i name="e_fr_energy">   -120.85681235 </i>
    <i name="e_wo_entrp">   -120.83597126 </i>
    <i name="e_0_energy">   -120.84986532 </i>
   </energy>
  </scstep>
  <scstep>
   <time name="dav">    6.56    6.61</time>
   <time name="total">    7.01    7.07</time>
   <energy>
    <i name="e_fr_energy">   -120.85660358 </i>
    <i name="e_wo_entrp">   -120.83655819 </i>
    <i name="e_0_energy">   -120.84992178 </i>
   </energy>
  </scstep>
  <scstep>
   <time name="dav">    5.14    5.18</time>
   <time name="total">    5.59    5.63</time>
   <energy>
    <i name="e_fr_energy">   -120.85529226 </i>
    <i name="e_wo_entrp">   -120.83599571 </i>
    <i name="e_0_energy">   -120.84886007 </i>
   </energy>
  </scstep>
  <scstep>
   <time name="dav">    5.82    5.87</time>
   <time name="total">    6.26    6.31</time>
   <energy>
    <i name="e_fr_energy">   -120.85479229 </i>
    <i name="e_wo_entrp">   -120.83412749 </i>
    <i name="e_0_energy">   -120.84790402 </i>
   </energy>
  </scstep>
  <scstep>
   <time name="dav">    6.51    6.57</time>
   <time name="total">    6.59    6.64</time>
   <energy>
    <i name="alphaZ">   1114.72537883 </i>
    <i name="ewald"> 216308.73203042 </i>
    <i name="hartreedc">-259831.32322237 </i>
    <i name="XCdc">   1433.70751786 </i>
    <i name="pawpsdc">  42132.57816207 </i>
    <i name="pawaedc"> -45584.54581759 </i>
    <i name="eentropy">     -0.02012378 </i>
    <i name="bandstr">   -230.31032607 </i>
    <i name="atom">  44535.60175172 </i>
    <i name="e_fr_energy">   -120.85464892 </i>
    <i name="e_wo_entrp">   -120.83452513 </i>
    <i name="e_0_energy">   -120.84794099 </i>
   </energy>
  </scstep>
  <structure>
   <crystal>
    <varray name="basis" >
     <v>       5.13359547       0.00000000       0.00000000 </v>
     <v>       2.56679773       4.44582409       0.00000000 </v>
     <v>       0.00000000       0.00000000      29.67047119 </v>
    </varray>
    <i name="volume">    677.17101477 </i>
    <varray name="rec_basis" >
     <v>       0.19479525      -0.11246509       0.00000000 </v>
     <v>       0.00000000       0.22493018       0.00000000 </v>
     <v>       0.00000000       0.00000000       0.03370354 </v>
    </varray>
   </crystal>
   <varray name="positions" >
    <v>       0.00007191       0.00000436       0.00013094 </v>
    <v>       0.00002279       0.49995441       0.00013487 </v>
    <v>       0.49992373       0.00000436       0.00013094 </v>
    <v>       0.49997622       0.50004757       0.00012707 </v>
    <v>       0.16666091       0.16667819       0.07051388 </v>
    <v>       0.16668871       0.66664750       0.07051722 </v>
    <v>       0.66665509       0.16668982       0.07050283 </v>
    <v>       0.66666379       0.66664750       0.07051722 </v>
    <v>       0.33339599       0.33327873       0.13846103 </v>
    <v>       0.33332497       0.83335006       0.13846023 </v>
    <v>       0.83332527       0.33327873       0.13846103 </v>
    <v>       0.83329675       0.83340649       0.13844981 </v>
    <v>       0.00003397       0.00002490       0.20668566 </v>
    <v>       0.00002295       0.49995409       0.20669487 </v>
    <v>       0.49994112       0.00002490       0.20668566 </v>
    <v>       0.50000280       0.49999441       0.20665950 </v>
    <v>       0.16670419       0.16659162       0.27487337 </v>
    <v>       0.16683839       0.66664486       0.27490308 </v>
    <v>       0.66659706       0.16680588       0.27489364 </v>
    <v>       0.66651675       0.66664486       0.27490308 </v>
    <v>       0.33344735       0.33324962       0.34322574 </v>
    <v>       0.33331978       0.83336044       0.34323773 </v>
    <v>       0.83330302       0.33324962       0.34322574 </v>
    <v>       0.83325088       0.83349825       0.34317616 </v>
    <v>      -0.00007440      -0.00006204       0.41111595 </v>
    <v>       0.99993479       0.50013043       0.41107821 </v>
    <v>       0.50013645      -0.00006204       0.41111595 </v>
    <v>       0.50001862       0.49996275       0.41112164 </v>
    <v>       0.16713204       0.16573592       0.48038766 </v>
    <v>       0.16792800       0.66672343       0.48029270 </v>
    <v>       0.66624817       0.16750366       0.48032433 </v>
    <v>       0.66534857       0.66672343       0.48029270 </v>
    <v>       0.91667026       0.66665949       0.53373003 </v>
    <v>       0.91667309       0.66665381       0.56051260 </v>
   </varray>
  </structure>
  <varray name="forces" >
   <v>       0.01204883       0.00057488       0.12554326 </v>
   <v>       0.00000000      -0.00624973       0.13051269 </v>
   <v>      -0.01204883       0.00057488       0.12554326 </v>
   <v>       0.00000000       0.00688427       0.12129031 </v>
   <v>      -0.00000000       0.00193600      -0.10944628 </v>
   <v>       0.00170724      -0.00283580      -0.10700048 </v>
   <v>       0.00000000       0.00306078      -0.12267989 </v>
   <v>      -0.00170724      -0.00283580      -0.10700048 </v>
   <v>       0.00431549      -0.00733719      -0.02414470 </v>
   <v>      -0.00000000       0.00257150      -0.02465327 </v>
   <v>      -0.00431549      -0.00733719      -0.02414470 </v>
   <v>      -0.00000000       0.00905131      -0.03307979 </v>
   <v>       0.00587773       0.00231083       0.01057412 </v>
   <v>       0.00000000      -0.00396097       0.01950983 </v>
   <v>      -0.00587773       0.00231083       0.01057412 </v>
   <v>       0.00000000      -0.00044895      -0.01496211 </v>
   <v>       0.00000000      -0.00966396      -0.00734633 </v>
   <v>       0.02570378      -0.00334019       0.01672963 </v>
   <v>       0.00000000       0.02008548       0.00372179 </v>
   <v>      -0.02570378      -0.00334019       0.01672963 </v>
   <v>       0.01060759      -0.01115138       0.04013085 </v>
   <v>       0.00000000       0.00383510       0.05349734 </v>
   <v>      -0.01060759      -0.01115138       0.04013085 </v>
   <v>      -0.00000000       0.02207108      -0.00806016 </v>
   <v>      -0.01785488      -0.00682662       0.04071424 </v>
   <v>      -0.00000000       0.01646097       0.00831926 </v>
   <v>       0.01785488      -0.00682662       0.04071424 </v>
   <v>       0.00000000      -0.00869911       0.03504072 </v>
   <v>       0.00000000      -0.11307554      -0.15881588 </v>
   <v>       0.16985081       0.00700424      -0.22242206 </v>
   <v>       0.00000000       0.10255364      -0.21782410 </v>
   <v>      -0.16985081       0.00700424      -0.22242206 </v>
   <v>       0.00000000      -0.00118246       0.62774771 </v>
   <v>       0.00000000      -0.00202695      -0.06302155 </v>
  </varray>
  <varray name="stress" >
   <v>     -30.82284783       0.00000000       0.00000000 </v>
   <v>       0.00000000     -30.64364327      -0.03269293 </v>
   <v>       0.00000000      -0.03268731      -6.52566574 </v>
  </varray>
  <energy>
   <i name="e_fr_energy">   -134.88000666 </i>
   <i name="e_wo_entrp">   -134.85988288 </i>
   <i name="e_0_energy">   -134.87329874 </i>
  </energy>
  <time name="totalsc">   59.46   60.01</time>
 </calculation>
 <calculation>
  <scstep>
   <time name="dav">    6.36    6.41</time>
   <time name="total">    6.81    6.87</time>
   <energy>
    <i name="alphaZ">   1114.72537883 </i>
    <i name="ewald"> 216581.01269749 </i>
    <i name="hartreedc">-260103.48105130 </i>
    <i name="XCdc">   1433.79779242 </i>
    <i name="pawpsdc">  42132.63613185 </i>
    <i name="pawaedc"> -45584.61595401 </i>
    <i name="eentropy">     -0.02203968 </i>
    <i name="bandstr">   -230.51520932 </i>
    <i name="atom">  44535.60175172 </i>
    <i name="e_fr_energy">   -120.86050200 </i>
    <i name="e_wo_entrp">   -120.83846232 </i>
    <i name="e_0_energy">   -120.85315544 </i>
   </energy>
  </scstep>
  <scstep>
   <time name="dav">    7.85    7.91</time>
   <time name="total">    8.30    8.36</time>
   <energy>
    <i name="e_fr_energy">   -120.87744998 </i>
    <i name="e_wo_entrp">   -120.85528088 </i>
    <i name="e_0_energy">   -120.87006028 </i>
   </energy>
  </scstep>
  <scstep>
   <time name="dav">    6.66    6.72</time>
   <time name="total">    7.11    7.17</time>
   <energy>
    <i name="e_fr_energy">   -120.87881496 </i>
    <i name="e_wo_entrp">   -120.85661405 </i>
    <i name="e_0_energy">   -120.87141466 </i>
   </energy>
  </scstep>
  <scstep>
   <time name="dav">    6.58    6.63</time>
   <time name="total">    7.03    7.08</time>
   <energy>
    <i name="e_fr_energy">   -120.87745113 </i>
    <i name="e_wo_entrp">   -120.85626635 </i>
    <i name="e_0_energy">   -120.87038954 </i>
   </energy>
  </scstep>
  <scstep>
   <time name="dav">    6.11    6.15</time>
   <time name="total">    6.55    6.60</time>
   <energy>
    <i name="e_fr_energy">   -120.87642877 </i>
    <i name="e_wo_entrp">   -120.85447672 </i>
    <i name="e_0_energy">   -120.86911142 </i>
   </energy>
  </scstep>
  <scstep>
   <time name="dav">    7.42    7.48</time>
   <time name="total">    7.87    7.94</time>
   <energy>
    <i name="e_fr_energy">   -120.87615656 </i>
    <i name="e_wo_entrp">   -120.85434942 </i>
    <i name="e_0_energy">   -120.86888752 </i>
   </energy>
  </scstep>
  <scstep>
   <time name="dav">    6.44    6.49</time>
   <time name="total">    6.89    6.94</time>
   <energy>
    <i name="e_fr_energy">   -120.87610416 </i>
    <i name="e_wo_entrp">   -120.85483630 </i>
    <i name="e_0_energy">   -120.86901487 </i>
   </energy>
  </scstep>
  <scstep>
   <time name="dav">    6.26    6.31</time>
   <time name="total">    6.34    6.39</time>
   <energy>
    <i name="alphaZ">   1114.72537883 </i>
    <i name="ewald"> 216581.01269749 </i>
    <i name="hartreedc">-260101.22029816 </i>
    <i name="XCdc">   1433.78596790 </i>
    <i name="pawpsdc">  42143.85499090 </i>
    <i name="pawaedc"> -45596.15047182 </i>
    <i name="eentropy">     -0.02217245 </i>
    <i name="bandstr">   -232.46395266 </i>
    <i name="atom">  44535.60175172 </i>
    <i name="e_fr_energy">   -120.87610825 </i>
    <i name="e_wo_entrp">   -120.85393580 </i>
    <i name="e_0_energy">   -120.86871743 </i>
   </energy>
  </scstep>
  <structure>
   <crystal>
    <varray name="basis" >
     <v>       5.13359547       0.00000000       0.00000000 </v>
     <v>       2.56679773       4.44582409       0.00000000 </v>
     <v>       0.00000000       0.00000000      29.67047119 </v>
    </varray>
    <i name="volume">    677.17101477 </i>
    <varray name="rec_basis" >
     <v>       0.19479525      -0.11246509       0.00000000 </v>
     <v>       0.00000000       0.22493018       0.00000000 </v>
     <v>       0.00000000       0.00000000       0.03370354 </v>
    </varray>
   </crystal>
   <varray name="positions" >
    <v>       0.00020838       0.00001223       0.00038275 </v>
    <v>       0.00006515       0.49986970       0.00039601 </v>
    <v>       0.49977939       0.00001223       0.00038275 </v>
    <v>       0.49993023       0.50013954       0.00037063 </v>
    <v>       0.16664844       0.16670312       0.07029072 </v>
    <v>       0.16672843       0.66660982       0.07029936 </v>
    <v>       0.66663414       0.16673172       0.07025452 </v>
    <v>       0.66666174       0.66660982       0.07029936 </v>
    <v>       0.33350071       0.33317875       0.13842066 </v>
    <v>       0.33330806       0.83338389       0.13841870 </v>
    <v>       0.83332054       0.33317875       0.13842066 </v>
    <v>       0.83323362       0.83353276       0.13839055 </v>
    <v>       0.00008996       0.00006027       0.20670704 </v>
    <v>       0.00005408       0.49989185       0.20673412 </v>
    <v>       0.49984977       0.00006027       0.20670704 </v>
    <v>       0.50000642       0.49998716       0.20662991 </v>
    <v>       0.16677083       0.16645834       0.27485484 </v>
    <v>       0.16716131       0.66660087       0.27493515 </v>
    <v>       0.66646278       0.16707444       0.27490169 </v>
    <v>       0.66623782       0.66660087       0.27493515 </v>
    <v>       0.33365062       0.33309729       0.34329855 </v>
    <v>       0.33329401       0.83341198       0.34333636 </v>
    <v>       0.83325208       0.33309729       0.34329855 </v>
    <v>       0.83310032       0.83379936       0.34315265 </v>
    <v>      -0.00023093      -0.00016073       0.41120526 </v>
    <v>       0.99982063       0.50035874       0.41110056 </v>
    <v>       0.50039166      -0.00016073       0.41120526 </v>
    <v>       0.50007098       0.49985803       0.41120542 </v>
    <v>       0.16792497       0.16415005       0.48007348 </v>
    <v>       0.16998182       0.66682121       0.47983655 </v>
    <v>       0.66553081       0.16893837       0.47989091 </v>
    <v>       0.66319696       0.66682121       0.47983655 </v>
    <v>       0.91667791       0.66664419       0.53439352 </v>
    <v>       0.91668634       0.66662731       0.56097786 </v>
   </varray>
  </structure>
  <varray name="forces" >
   <v>       0.00413615      -0.00021615       0.06565439 </v>
   <v>       0.00000000      -0.00106953       0.06971870 </v>
   <v>      -0.00413615      -0.00021615       0.06565439 </v>
   <v>      -0.00000000       0.00311967       0.06298846 </v>
   <v>      -0.00000000       0.00099259      -0.01643059 </v>
   <v>      -0.00019915      -0.00110149      -0.01728833 </v>
   <v>      -0.00000000       0.00028828      -0.02865888 </v>
   <v>       0.00019915      -0.00110149      -0.01728833 </v>
   <v>      -0.00182015      -0.00136342      -0.04167432 </v>
   <v>      -0.00000000       0.00079317      -0.04129737 </v>
   <v>       0.00182015      -0.00136342      -0.04167432 </v>
   <v>      -0.00000000      -0.00034405      -0.04083249 </v>
   <v>      -0.00167314      -0.00272693      -0.00044901 </v>
   <v>      -0.00000000       0.00467165       0.00446373 </v>
   <v>       0.00167314      -0.00272693      -0.00044901 </v>
   <v>      -0.00000000       0.00068403      -0.01164146 </v>
   <v>       0.00000000      -0.00080821       0.01166732 </v>
   <v>       0.00588718      -0.00134766       0.01089810 </v>
   <v>      -0.00000000       0.00618522      -0.00109202 </v>
   <v>      -0.00588718      -0.00134766       0.01089810 </v>
   <v>      -0.00041228      -0.00269974       0.02023352 </v>
   <v>       0.00000000       0.00249186       0.03330990 </v>
   <v>       0.00041228      -0.00269974       0.02023352 </v>
   <v>       0.00000000       0.00546667      -0.00137770 </v>
   <v>      -0.01173126       0.00084167      -0.03343178 </v>
   <v>       0.00000000       0.00541731      -0.02262731 </v>
   <v>       0.01173126       0.00084167      -0.03343178 </v>
   <v>      -0.00000000      -0.01137416      -0.06987871 </v>
   <v>      -0.00000000      -0.01669839      -0.09576119 </v>
   <v>       0.01934770       0.00110763      -0.12344451 </v>
   <v>      -0.00000000       0.01816367      -0.12664567 </v>
   <v>      -0.01934770       0.00110763      -0.12344451 </v>
   <v>      -0.00000000      -0.00106198       0.52345746 </v>
   <v>      -0.00000000      -0.00190564      -0.01035832 </v>
  </varray>
  <varray name="stress" >
   <v>     -31.99163045       0.00000000       0.00000000 </v>
   <v>       0.00000000     -31.83841039      -0.03192082 </v>
   <v>       0.00000000      -0.03191507      -7.09641617 </v>
  </varray>
  <energy>
   <i name="e_fr_energy">   -134.90687132 </i>
   <i name="e_wo_entrp">   -134.88469886 </i>
   <i name="e_0_energy">   -134.89948050 </i>
  </energy>
  <time name="totalsc">   68.49   69.11</time>
 </calculation>
 <calculation>
  <scstep>
   <time name="dav">    6.37    6.42</time>
   <time name="total">    6.82    6.88</time>
   <energy>
    <i name="alphaZ">   1114.72537883 </i>
    <i name="ewald"> 216922.90557102 </i>
    <i name="hartreedc">-260442.30581034 </i>
    <i name="XCdc">   1433.90297022 </i>
    <i name="pawpsdc">  42144.04168608 </i>
    <i name="pawaedc"> -45596.30870691 </i>
    <i name="eentropy">     -0.02360680 </i>
    <i name="bandstr">   -233.39841802 </i>
    <i name="atom">  44535.60175172 </i>
    <i name="e_fr_energy">   -120.85918419 </i>
    <i name="e_wo_entrp">   -120.83557739 </i>
    <i name="e_0_energy">   -120.85131526 </i>
   </energy>
  </scstep>
  <scstep>
   <time name="dav">    7.91    7.97</time>
   <time name="total">    8.36    8.42</time>
   <energy>
    <i name="e_fr_energy">   -120.88696494 </i>
    <i name="e_wo_entrp">   -120.86348047 </i>
    <i name="e_0_energy">   -120.87913678 </i>
   </energy>
  </scstep>
  <scstep>
   <time name="dav">    6.73    6.78</time>
   <time name="total">    7.17    7.23</time>
   <energy>
    <i name="e_fr_energy">   -120.89116583 </i>
    <i name="e_wo_entrp">   -120.86655828 </i>
    <i name="e_0_energy">   -120.88296331 </i>
   </energy>
  </scstep>
  <scstep>
   <time name="dav">    6.63    6.68</time>
   <time name="total">    7.08    7.14</time>
   <energy>
    <i name="e_fr_energy">   -120.88551498 </i>
    <i name="e_wo_entrp">   -120.86297326 </i>
    <i name="e_0_energy">   -120.87800107 </i>
   </energy>
  </scstep>
  <scstep>
   <time name="dav">    7.81    7.87</time>
   <time name="total">    8.25    8.32</time>
   <energy>
    <i name="e_fr_energy">   -120.88521318 </i>
    <i name="e_wo_entrp">   -120.86151122 </i>
    <i name="e_0_energy">   -120.87731253 </i>
   </energy>
  </scstep>
  <scstep>
   <time name="dav">    7.99    8.05</time>
   <time name="total">    8.43    8.50</time>
   <energy>
    <i name="e_fr_energy">   -120.88472765 </i>
    <i name="e_wo_entrp">   -120.86122908 </i>
    <i name="e_0_energy">   -120.87689480 </i>
   </energy>
  </scstep>
  <scstep>
   <time name="dav">    6.33    6.39</time>
   <time name="total">    6.79    6.84</time>
   <energy>
    <i name="e_fr_energy">   -120.88451538 </i>
    <i name="e_wo_entrp">   -120.86163676 </i>
    <i name="e_0_energy">   -120.87688917 </i>
   </energy>
  </scstep>
  <scstep>
   <time name="dav">    6.64    6.69</time>
   <time name="total">    6.72    6.77</time>
   <energy>
    <i name="alphaZ">   1114.72537883 </i>
    <i name="ewald"> 216922.90557102 </i>
    <i name="hartreedc">-260440.51350292 </i>
    <i name="XCdc">   1433.88083783 </i>
    <i name="pawpsdc">  42160.53628054 </i>
    <i name="pawaedc"> -45613.12339285 </i>
    <i name="eentropy">     -0.02348749 </i>
    <i name="bandstr">   -234.87402666 </i>
    <i name="atom">  44535.60175172 </i>
    <i name="e_fr_energy">   -120.88458998 </i>
    <i name="e_wo_entrp">   -120.86110249 </i>
    <i name="e_0_energy">   -120.87676082 </i>
   </energy>
  </scstep>
  <structure>
   <crystal>
    <varray name="basis" >
     <v>       5.13359547       0.00000000       0.00000000 </v>
     <v>       2.56679773       4.44582409       0.00000000 </v>
     <v>       0.00000000       0.00000000      29.67047119 </v>
    </varray>
    <i name="volume">    677.17101477 </i>
    <varray name="rec_basis" >
     <v>       0.19479525      -0.11246509       0.00000000 </v>
     <v>       0.00000000       0.22493018       0.00000000 </v>
     <v>       0.00000000       0.00000000       0.03370354 </v>
    </varray>
   </crystal>
   <varray name="positions" >
    <v>       0.00037870       0.00002206       0.00069702 </v>
    <v>       0.00011801       0.49976398       0.00072193 </v>
    <v>       0.49959924       0.00002206       0.00069702 </v>
    <v>       0.49987283       0.50025433       0.00067460 </v>
    <v>       0.16663288       0.16673423       0.07001221 </v>
    <v>       0.16677801       0.66656280       0.07002747 </v>
    <v>       0.66660800       0.16678401       0.06994461 </v>
    <v>       0.66665919       0.66656280       0.07002747 </v>
    <v>       0.33363141       0.33305395       0.13837026 </v>
    <v>       0.33328694       0.83342611       0.13836687 </v>
    <v>       0.83331463       0.33305395       0.13837026 </v>
    <v>       0.83315483       0.83369035       0.13831660 </v>
    <v>       0.00015983       0.00010441       0.20673373 </v>
    <v>       0.00009292       0.49981416       0.20678311 </v>
    <v>       0.49973576       0.00010441       0.20673373 </v>
    <v>       0.50001094       0.49997811       0.20659297 </v>
    <v>       0.16685399       0.16629201       0.27483170 </v>
    <v>       0.16756432       0.66654598       0.27497517 </v>
    <v>       0.66629519       0.16740961       0.27491174 </v>
    <v>       0.66588970       0.66654598       0.27497517 </v>
    <v>       0.33390431       0.33290717       0.34338941 </v>
    <v>       0.33326185       0.83347630       0.34345946 </v>
    <v>       0.83318851       0.33290717       0.34338941 </v>
    <v>       0.83291242       0.83417517       0.34312330 </v>
    <v>      -0.00042629      -0.00028390       0.41131673 </v>
    <v>       0.99967816       0.50064369       0.41112845 </v>
    <v>       0.50071018      -0.00028390       0.41131673 </v>
    <v>       0.50013633       0.49972734       0.41130997 </v>
    <v>       0.16891460       0.16217081       0.47968138 </v>
    <v>       0.17254509       0.66694326       0.47926726 </v>
    <v>       0.66463552       0.17072896       0.47934997 </v>
    <v>       0.66051166       0.66694326       0.47926726 </v>
    <v>       0.91668745       0.66662509       0.53522159 </v>
    <v>       0.91670288       0.66659424       0.56155853 </v>
   </varray>
  </structure>
  <varray name="forces" >
   <v>      -0.00410370      -0.00109972       0.00255874 </v>
   <v>       0.00000000       0.00438559       0.00608351 </v>
   <v>       0.00410370      -0.00109972       0.00255874 </v>
   <v>       0.00000000      -0.00078985       0.00118766 </v>
   <v>       0.00000000      -0.00016347       0.08026055 </v>
   <v>      -0.00193476       0.00074377       0.07525245 </v>
   <v>       0.00000000      -0.00258181       0.06717822 </v>
   <v>       0.00193476       0.00074377       0.07525245 </v>
   <v>      -0.00834055       0.00451154      -0.06626840 </v>
   <v>       0.00000000      -0.00088962      -0.06515580 </v>
   <v>       0.00834055       0.00451154      -0.06626840 </v>
   <v>       0.00000000      -0.00998044      -0.05558761 </v>
   <v>      -0.00949686      -0.00799383      -0.00896614 </v>
   <v>       0.00000000       0.01382556      -0.00758343 </v>
   <v>       0.00949686      -0.00799383      -0.00896614 </v>
   <v>       0.00000000       0.00184497      -0.00653042 </v>
   <v>       0.00000000       0.00826505       0.03664384 </v>
   <v>      -0.01389291       0.00036825       0.01064068 </v>
   <v>       0.00000000      -0.00730853      -0.00118360 </v>
   <v>       0.01389291       0.00036825       0.01064068 </v>
   <v>      -0.01201776       0.00593748       0.00631580 </v>
   <v>       0.00000000       0.00107849       0.02024999 </v>
   <v>       0.01201776       0.00593748       0.00631580 </v>
   <v>       0.00000000      -0.01153436       0.00991293 </v>
   <v>      -0.00632425       0.00951368      -0.11611180 </v>
   <v>       0.00000000      -0.00624942      -0.05324094 </v>
   <v>       0.00632425       0.00951368      -0.11611180 </v>
   <v>       0.00000000      -0.01603035      -0.19688174 </v>
   <v>      -0.00000000       0.08553606      -0.03372823 </v>
   <v>      -0.14446717      -0.00319670      -0.01982007 </v>
   <v>       0.00000000      -0.07412657      -0.03135029 </v>
   <v>       0.14446717      -0.00319670      -0.01982007 </v>
   <v>       0.00000000      -0.00098602       0.38675380 </v>
   <v>       0.00000000      -0.00186420       0.07576902 </v>
  </varray>
  <varray name="stress" >
   <v>     -30.01118971       0.00000000       0.00000000 </v>
   <v>       0.00000000     -29.92105030      -0.02824668 </v>
   <v>       0.00000000      -0.02824082      -4.57348407 </v>
  </varray>
  <energy>
   <i name="e_fr_energy">   -134.92201084 </i>
   <i name="e_wo_entrp">   -134.89852335 </i>
   <i name="e_0_energy">   -134.91418168 </i>
  </energy>
  <time name="totalsc">   71.18   71.78</time>
 </calculation>
 <calculation>
  <scstep>
   <time name="dav">    6.50    6.55</time>
   <time name="total">    6.95    7.01</time>
   <energy>
    <i name="alphaZ">   1114.72537883 </i>
    <i name="ewald"> 216984.57234821 </i>
    <i name="hartreedc">-260502.49332813 </i>
    <i name="XCdc">   1433.90343995 </i>
    <i name="pawpsdc">  42160.90256267 </i>
    <i name="pawaedc"> -45613.49811885 </i>
    <i name="eentropy">     -0.02343343 </i>
    <i name="bandstr">   -234.57339881 </i>
    <i name="atom">  44535.60175172 </i>
    <i name="e_fr_energy">   -120.88279786 </i>
    <i name="e_wo_entrp">   -120.85936443 </i>
    <i name="e_0_energy">   -120.87498672 </i>
   </energy>
  </scstep>
  <scstep>
   <time name="dav">    9.41    9.48</time>
   <time name="total">    9.86    9.94</time>
   <energy>
    <i name="e_fr_energy">   -120.88564891 </i>
    <i name="e_wo_entrp">   -120.86180384 </i>
    <i name="e_0_energy">   -120.87770055 </i>
   </energy>
  </scstep>
  <scstep>
   <time name="dav">    7.79    7.85</time>
   <time name="total">    8.24    8.31</time>
   <energy>
    <i name="e_fr_energy">   -120.88369293 </i>
    <i name="e_wo_entrp">   -120.86058828 </i>
    <i name="e_0_energy">   -120.87599138 </i>
   </energy>
  </scstep>
  <scstep>
   <time name="dav">    5.58    5.62</time>
   <time name="total">    5.66    5.70</time>
   <energy>
    <i name="alphaZ">   1114.72537883 </i>
    <i name="ewald"> 216984.57234821 </i>
    <i name="hartreedc">-260502.61320486 </i>
    <i name="XCdc">   1433.88889232 </i>
    <i name="pawpsdc">  42162.74645690 </i>
    <i name="pawaedc"> -45615.26023728 </i>
    <i name="eentropy">     -0.02343865 </i>
    <i name="bandstr">   -234.52167212 </i>
    <i name="atom">  44535.60175172 </i>
    <i name="e_fr_energy">   -120.88372492 </i>
    <i name="e_wo_entrp">   -120.86028628 </i>
    <i name="e_0_energy">   -120.87591204 </i>
   </energy>
  </scstep>
  <structure>
   <crystal>
    <varray name="basis" >
     <v>       5.13359547       0.00000000       0.00000000 </v>
     <v>       2.56679773       4.44582409       0.00000000 </v>
     <v>       0.00000000       0.00000000      29.67047119 </v>
    </varray>
    <i name="volume">    677.17101477 </i>
    <varray name="rec_basis" >
     <v>       0.19479525      -0.11246509       0.00000000 </v>
     <v>       0.00000000       0.22493018       0.00000000 </v>
     <v>       0.00000000       0.00000000       0.03370354 </v>
    </varray>
   </crystal>
   <varray name="positions" >
    <v>       0.00040930       0.00002383       0.00075348 </v>
    <v>       0.00012751       0.49974499       0.00078049 </v>
    <v>       0.49956687       0.00002383       0.00075348 </v>
    <v>       0.49986252       0.50027496       0.00072921 </v>
    <v>       0.16663009       0.16673982       0.06996217 </v>
    <v>       0.16678691       0.66655436       0.06997862 </v>
    <v>       0.66660330       0.16679340       0.06988894 </v>
    <v>       0.66665873       0.66655436       0.06997862 </v>
    <v>       0.33365489       0.33303154       0.13836121 </v>
    <v>       0.33328315       0.83343370       0.13835755 </v>
    <v>       0.83331357       0.33303154       0.13836121 </v>
    <v>       0.83314067       0.83371866       0.13830331 </v>
    <v>       0.00017238       0.00011234       0.20673853 </v>
    <v>       0.00009990       0.49980021       0.20679191 </v>
    <v>       0.49971528       0.00011234       0.20673853 </v>
    <v>       0.50001176       0.49997649       0.20658633 </v>
    <v>       0.16686894       0.16626213       0.27482755 </v>
    <v>       0.16763673       0.66653612       0.27498236 </v>
    <v>       0.66626508       0.16746983       0.27491354 </v>
    <v>       0.66582716       0.66653612       0.27498236 </v>
    <v>       0.33394989       0.33287302       0.34340573 </v>
    <v>       0.33325607       0.83348786       0.34348157 </v>
    <v>       0.83317709       0.33287302       0.34340573 </v>
    <v>       0.83287866       0.83424268       0.34311803 </v>
    <v>      -0.00046139      -0.00030602       0.41133675 </v>
    <v>       0.99965256       0.50069488       0.41113347 </v>
    <v>       0.50076741      -0.00030602       0.41133675 </v>
    <v>       0.50014807       0.49970386       0.41132875 </v>
    <v>       0.16909239       0.16181522       0.47961094 </v>
    <v>       0.17300559       0.66696518       0.47916498 </v>
    <v>       0.66447467       0.17105065       0.47925279 </v>
    <v>       0.66002922       0.66696518       0.47916498 </v>
    <v>       0.91668917       0.66662166       0.53537036 </v>
    <v>       0.91670585       0.66658830       0.56166285 </v>
   </varray>
  </structure>
  <varray name="forces" >
   <v>      -0.00521508      -0.00144452      -0.00536966 </v>
   <v>      -0.00000000       0.00515346      -0.00169515 </v>
   <v>       0.00521508      -0.00144452      -0.00536966 </v>
   <v>      -0.00000000      -0.00122926      -0.00641688 </v>
   <v>      -0.00000000      -0.00035789       0.09370363 </v>
   <v>      -0.00213196       0.00097603       0.08814303 </v>
   <v>      -0.00000000      -0.00298143       0.08055840 </v>
   <v>       0.00213196       0.00097603       0.08814303 </v>
   <v>      -0.00930002       0.00523751      -0.06896557 </v>
   <v>      -0.00000000      -0.00105428      -0.06783392 </v>
   <v>       0.00930002       0.00523751      -0.06896557 </v>
   <v>       0.00000000      -0.01128083      -0.05711763 </v>
   <v>      -0.01055334      -0.00872865      -0.01253241 </v>
   <v>      -0.00000000       0.01500333      -0.01125391 </v>
   <v>       0.01055334      -0.00872865      -0.01253241 </v>
   <v>      -0.00000000       0.00186658      -0.00888329 </v>
   <v>      -0.00000000       0.00923184       0.03772305 </v>
   <v>      -0.01602965       0.00046692       0.00910313 </v>
   <v>       0.00000000      -0.00863631      -0.00258119 </v>
   <v>       0.01602965       0.00046692       0.00910313 </v>
   <v>      -0.01373129       0.00711146       0.01135361 </v>
   <v>      -0.00000000       0.00072605       0.02670221 </v>
   <v>       0.01373129       0.00711146       0.01135361 </v>
[...]
       <r>    11.0712     9.1694   223.5451 </r>
       <r>    11.1511     7.1992   224.1202 </r>
       <r>    11.2310     7.6331   224.7298 </r>
       <r>    11.3109    10.7154   225.5857 </r>
       <r>    11.3907    13.0411   226.6274 </r>
       <r>    11.4706    11.4096   227.5387 </r>
       <r>    11.5505     7.0274   228.1000 </r>
       <r>    11.6303     3.8898   228.4107 </r>
       <r>    11.7102     3.8978   228.7220 </r>
       <r>    11.7901     5.7703   229.1829 </r>
       <r>    11.8700     7.1925   229.7574 </r>
       <r>    11.9498     6.5928   230.2840 </r>
       <r>    12.0297     4.2710   230.6252 </r>
       <r>    12.1096     1.9712   230.7826 </r>
       <r>    12.1895     0.7551   230.8429 </r>
       <r>    12.2693     0.3667   230.8722 </r>
       <r>    12.3492     0.5198   230.9137 </r>
       <r>    12.4291     1.2264   231.0117 </r>
       <r>    12.5090     2.0479   231.1752 </r>
       <r>    12.5888     2.2874   231.3580 </r>
       <r>    12.6687     1.9725   231.5155 </r>
       <r>    12.7486     1.7774   231.6575 </r>
       <r>    12.8285     1.8432   231.8047 </r>
       <r>    12.9083     1.5941   231.9320 </r>
       <r>    12.9882     0.8665   232.0012 </r>
       <r>    13.0681     0.1892   232.0163 </r>
       <r>    13.1479    -0.0817   232.0098 </r>
       <r>    13.2278    -0.0817   232.0033 </r>
       <r>    13.3077    -0.0321   232.0007 </r>
       <r>    13.3876    -0.0076   232.0001 </r>
       <r>    13.4674    -0.0012   232.0000 </r>
       <r>    13.5473    -0.0001   232.0000 </r>
       <r>    13.6272    -0.0000   232.0000 </r>
       <r>    13.7071    -0.0000   232.0000 </r>
       <r>    13.7869    -0.0000   232.0000 </r>
       <r>    13.8668    -0.0000   232.0000 </r>
       <r>    13.9467    -0.0000   232.0000 </r>
       <r>    14.0266    -0.0000   232.0000 </r>
       <r>    14.1064    -0.0000   232.0000 </r>
       <r>    14.1863     0.0000   232.0000 </r>
       <r>    14.2662     0.0000   232.0000 </r>
       <r>    14.3461     0.0000   232.0000 </r>
       <r>    14.4259     0.0000   232.0000 </r>
       <r>    14.5058     0.0000   232.0000 </r>
       <r>    14.5857     0.0000   232.0000 </r>
       <r>    14.6656     0.0000   232.0000 </r>
       <r>    14.7454     0.0000   232.0000 </r>
       <r>    14.8253     0.0000   232.0000 </r>
      </set>
      <set comment="spin 2">
       <r>    -9.1368     0.0000     0.0000 </r>
       <r>    -9.0570     0.0000     0.0000 </r>
       <r>    -8.9771     0.0000     0.0000 </r>
       <r>    -8.8972     0.0000     0.0000 </r>
       <r>    -8.8173     0.0000     0.0000 </r>
       <r>    -8.7375    -0.0000    -0.0000 </r>
       <r>    -8.6576    -0.0000    -0.0000 </r>
       <r>    -8.5777    -0.0000    -0.0000 </r>
       <r>    -8.4979    -0.0000    -0.0000 </r>
       <r>    -8.4180    -0.0000    -0.0000 </r>
       <r>    -8.3381    -0.0000    -0.0000 </r>
       <r>    -8.2582    -0.0000    -0.0000 </r>
       <r>    -8.1784    -0.0000    -0.0000 </r>
       <r>    -8.0985    -0.0000    -0.0000 </r>
       <r>    -8.0186    -0.0000    -0.0000 </r>
       <r>    -7.9387    -0.0000    -0.0000 </r>
       <r>    -7.8589    -0.0000    -0.0000 </r>
       <r>    -7.7790    -0.0000    -0.0000 </r>
       <r>    -7.6991    -0.0003    -0.0000 </r>
       <r>    -7.6192    -0.0020    -0.0002 </r>
       <r>    -7.5394    -0.0083    -0.0009 </r>
       <r>    -7.4595    -0.0206    -0.0025 </r>
       <r>    -7.3796    -0.0181    -0.0039 </r>
       <r>    -7.2997     0.0578     0.0007 </r>
       <r>    -7.2199     0.2397     0.0198 </r>
       <r>    -7.1400     0.4187     0.0533 </r>
       <r>    -7.0601     0.4154     0.0864 </r>
       <r>    -6.9802     0.2394     0.1056 </r>
       <r>    -6.9004     0.1213     0.1153 </r>
       <r>    -6.8205     0.2144     0.1324 </r>
       <r>    -6.7406     0.3855     0.1632 </r>
       <r>    -6.6608     0.3736     0.1930 </r>
       <r>    -6.5809     0.1328     0.2036 </r>
       <r>    -6.5010    -0.0217     0.2019 </r>
       <r>    -6.4211     0.4018     0.2340 </r>
       <r>    -6.3413     1.5320     0.3564 </r>
       <r>    -6.2614     2.6127     0.5650 </r>
       <r>    -6.1815     2.6390     0.7758 </r>
       <r>    -6.1016     1.7906     0.9188 </r>
       <r>    -6.0218     1.3462     1.0264 </r>
       <r>    -5.9419     1.9352     1.1809 </r>
       <r>    -5.8620     2.6527     1.3928 </r>
       <r>    -5.7821     2.3346     1.5793 </r>
       <r>    -5.7023     1.1413     1.6705 </r>
       <r>    -5.6224     0.0901     1.6777 </r>
       <r>    -5.5425    -0.3000     1.6537 </r>
       <r>    -5.4626     0.0150     1.6549 </r>
       <r>    -5.3828     1.1179     1.7442 </r>
       <r>    -5.3029     2.5877     1.9509 </r>
       <r>    -5.2230     3.2037     2.2068 </r>
       <r>    -5.1432     2.3284     2.3927 </r>
       <r>    -5.0633     0.8402     2.4598 </r>
       <r>    -4.9834    -0.1222     2.4501 </r>
       <r>    -4.9035    -0.2726     2.4283 </r>
       <r>    -4.8237     0.3030     2.4525 </r>
       <r>    -4.7438     1.4616     2.5693 </r>
       <r>    -4.6639     2.6549     2.7813 </r>
       <r>    -4.5840     3.4160     3.0542 </r>
       <r>    -4.5042     4.0450     3.3772 </r>
       <r>    -4.4243     4.7267     3.7548 </r>
       <r>    -4.3444     4.7046     4.1306 </r>
       <r>    -4.2645     3.4947     4.4097 </r>
       <r>    -4.1847     2.0904     4.5767 </r>
       <r>    -4.1048     1.7884     4.7195 </r>
       <r>    -4.0249     2.5321     4.9218 </r>
       <r>    -3.9450     3.6295     5.2117 </r>
       <r>    -3.8652     4.9732     5.6089 </r>
       <r>    -3.7853     6.2537     6.1084 </r>
       <r>    -3.7054     6.5696     6.6331 </r>
       <r>    -3.6255     5.9022     7.1046 </r>
       <r>    -3.5457     5.4971     7.5436 </r>
       <r>    -3.4658     5.9773     8.0211 </r>
       <r>    -3.3859     6.3068     8.5248 </r>
       <r>    -3.3061     5.5024     8.9643 </r>
       <r>    -3.2262     4.0432     9.2873 </r>
       <r>    -3.1463     2.9775     9.5251 </r>
       <r>    -3.0664     3.0454     9.7683 </r>
       <r>    -2.9866     4.3558    10.1162 </r>
       <r>    -2.9067     6.1631    10.6085 </r>
       <r>    -2.8268     8.0669    11.2528 </r>
       <r>    -2.7469    10.9400    12.1267 </r>
       <r>    -2.6671    15.3982    13.3566 </r>
       <r>    -2.5872    20.5696    14.9996 </r>
       <r>    -2.5073    24.7780    16.9787 </r>
       <r>    -2.4274    26.1617    19.0683 </r>
       <r>    -2.3476    23.8109    20.9702 </r>
       <r>    -2.2677    19.7254    22.5457 </r>
       <r>    -2.1878    17.8743    23.9734 </r>
       <r>    -2.1079    20.4119    25.6038 </r>
       <r>    -2.0281    26.2705    27.7021 </r>
       <r>    -1.9482    32.7952    30.3216 </r>
       <r>    -1.8683    37.2388    33.2960 </r>
       <r>    -1.7885    38.2202    36.3488 </r>
       <r>    -1.7086    36.2497    39.2442 </r>
       <r>    -1.6287    32.6129    41.8491 </r>
       <r>    -1.5488    29.2866    44.1883 </r>
       <r>    -1.4690    28.1376    46.4358 </r>
       <r>    -1.3891    29.5414    48.7954 </r>
       <r>    -1.3092    33.6890    51.4863 </r>
       <r>    -1.2293    40.4208    54.7148 </r>
       <r>    -1.1495    46.6905    58.4442 </r>
       <r>    -1.0696    48.9973    62.3578 </r>
       <r>    -0.9897    49.3760    66.3016 </r>
       <r>    -0.9098    53.1129    70.5439 </r>
       <r>    -0.8300    59.6943    75.3119 </r>
       <r>    -0.7501    63.3972    80.3757 </r>
       <r>    -0.6702    62.2645    85.3490 </r>
       <r>    -0.5903    59.2815    90.0841 </r>
       <r>    -0.5105    56.9000    94.6289 </r>
       <r>    -0.4306    55.4171    99.0553 </r>
       <r>    -0.3507    54.7815   103.4309 </r>
       <r>    -0.2708    54.3771   107.7742 </r>
       <r>    -0.1910    52.6844   111.9823 </r>
       <r>    -0.1111    50.2162   115.9932 </r>
       <r>    -0.0312    48.9824   119.9056 </r>
       <r>     0.0486    49.3526   123.8476 </r>
       <r>     0.1285    52.6251   128.0510 </r>
       <r>     0.2084    60.7252   132.9013 </r>
       <r>     0.2883    69.9180   138.4860 </r>
       <r>     0.3681    74.0223   144.3984 </r>
       <r>     0.4480    73.7718   150.2908 </r>
       <r>     0.5279    73.6237   156.1714 </r>
       <r>     0.6078    71.2187   161.8599 </r>
       <r>     0.6876    59.0884   166.5796 </r>
       <r>     0.7675    36.8929   169.5263 </r>
       <r>     0.8474    14.5344   170.6872 </r>
       <r>     0.9273     1.5438   170.8106 </r>
       <r>     1.0071    -1.3941   170.6992 </r>
       <r>     1.0870     0.3981   170.7310 </r>
       <r>     1.1669     2.3047   170.9151 </r>
       <r>     1.2468     3.1639   171.1678 </r>
       <r>     1.3266     3.8401   171.4745 </r>
       <r>     1.4065     4.7504   171.8539 </r>
       <r>     1.4864     5.0856   172.2602 </r>
       <r>     1.5662     4.0233   172.5815 </r>
       <r>     1.6461     2.3197   172.7668 </r>
       <r>     1.7260     2.1230   172.9364 </r>
       <r>     1.8059     4.6818   173.3103 </r>
       <r>     1.8857     8.6994   174.0052 </r>
       <r>     1.9656    11.4198   174.9173 </r>
       <r>     2.0455    11.3591   175.8246 </r>
       <r>     2.1254     9.8816   176.6139 </r>
       <r>     2.2052     9.0682   177.3382 </r>
       <r>     2.2851     8.3087   178.0019 </r>
       <r>     2.3650     5.8393   178.4683 </r>
       <r>     2.4449     2.7670   178.6893 </r>
       <r>     2.5247     1.8508   178.8371 </r>
       <r>     2.6046     3.5461   179.1204 </r>
       <r>     2.6845     5.9199   179.5932 </r>
       <r>     2.7644     7.0341   180.1550 </r>
       <r>     2.8442     6.2209   180.6519 </r>
       <r>     2.9241     4.5218   181.0131 </r>
       <r>     3.0040     3.6759   181.3067 </r>
       <r>     3.0839     3.7123   181.6032 </r>
       <r>     3.1637     3.2846   181.8656 </r>
       <r>     3.2436     2.3780   182.0555 </r>
       <r>     3.3235     2.3453   182.2428 </r>
       <r>     3.4033     3.8917   182.5537 </r>
       <r>     3.4832     6.5187   183.0744 </r>
       <r>     3.5631     9.0566   183.7977 </r>
       <r>     3.6430    10.1223   184.6063 </r>
       <r>     3.7228     8.9290   185.3194 </r>
       <r>     3.8027     6.2036   185.8150 </r>
       <r>     3.8826     3.8116   186.1194 </r>
       <r>     3.9625     2.8055   186.3435 </r>
       <r>     4.0423     2.3740   186.5331 </r>
       <r>     4.1222     1.4896   186.6521 </r>
       <r>     4.2021     0.3941   186.6836 </r>
       <r>     4.2820    -0.2927   186.6602 </r>
       <r>     4.3618    -0.4196   186.6267 </r>
       <r>     4.4417     0.2882   186.6497 </r>
       <r>     4.5216     2.2389   186.8285 </r>
       <r>     4.6015     4.6392   187.1991 </r>
       <r>     4.6813     5.6400   187.6495 </r>
       <r>     4.7612     4.8256   188.0350 </r>
       <r>     4.8411     3.5805   188.3210 </r>
       <r>     4.9209     2.5913   188.5280 </r>
       <r>     5.0008     1.4655   188.6450 </r>
       <r>     5.0807     0.3018   188.6691 </r>
       <r>     5.1606    -0.3013   188.6451 </r>
       <r>     5.2404     0.0798   188.6514 </r>
       <r>     5.3203     1.6240   188.7811 </r>
       <r>     5.4002     3.8914   189.0920 </r>
       <r>     5.4801     5.7168   189.5486 </r>
       <r>     5.5599     6.4852   190.0666 </r>
       <r>     5.6398     6.9008   190.6178 </r>
       <r>     5.7197     7.4086   191.2095 </r>
       <r>     5.7996     7.1902   191.7838 </r>
       <r>     5.8794     5.8891   192.2542 </r>
       <r>     5.9593     4.3287   192.6000 </r>
       <r>     6.0392     3.0215   192.8413 </r>
       <r>     6.1191     1.9784   192.9993 </r>
       <r>     6.1989     1.8250   193.1451 </r>
       <r>     6.2788     3.5371   193.4276 </r>
       <r>     6.3587     6.4660   193.9441 </r>
       <r>     6.4385     7.9862   194.5820 </r>
       <r>     6.5184     6.8112   195.1260 </r>
       <r>     6.5983     4.7294   195.5038 </r>
       <r>     6.6782     3.5954   195.7909 </r>
       <r>     6.7580     3.4643   196.0676 </r>
       <r>     6.8379     4.0890   196.3942 </r>
       <r>     6.9178     5.1247   196.8036 </r>
       <r>     6.9977     5.6175   197.2523 </r>
       <r>     7.0775     5.6673   197.7049 </r>
       <r>     7.1574     6.5114   198.2250 </r>
       <r>     7.2373     8.0452   198.8676 </r>
       <r>     7.3172     9.0147   199.5877 </r>
       <r>     7.3970     8.8597   200.2953 </r>
       <r>     7.4769     7.3472   200.8822 </r>
       <r>     7.5568     4.6446   201.2532 </r>
       <r>     7.6367     2.3526   201.4411 </r>
       <r>     7.7165     2.1629   201.6138 </r>
       <r>     7.7964     4.0275   201.9355 </r>
       <r>     7.8763     6.6230   202.4645 </r>
       <r>     7.9562     8.5698   203.1490 </r>
       <r>     8.0360     8.8599   203.8567 </r>
       <r>     8.1159     7.2583   204.4364 </r>
       <r>     8.1958     4.9695   204.8334 </r>
       <r>     8.2756     3.7306   205.1313 </r>
       <r>     8.3555     4.0496   205.4548 </r>
       <r>     8.4354     5.5928   205.9015 </r>
       <r>     8.5153     8.0460   206.5442 </r>
       <r>     8.5951    10.1091   207.3516 </r>
       <r>     8.6750     9.7722   208.1322 </r>
       <r>     8.7549     6.9291   208.6856 </r>
       <r>     8.8348     3.8752   208.9952 </r>
       <r>     8.9146     2.7428   209.2142 </r>
       <r>     8.9945     3.5109   209.4947 </r>
       <r>     9.0744     4.4667   209.8514 </r>
       <r>     9.1543     4.5093   210.2116 </r>
       <r>     9.2341     4.6688   210.5845 </r>
       <r>     9.3140     6.3240   211.0897 </r>
       <r>     9.3939     8.5920   211.7759 </r>
       <r>     9.4738     9.1284   212.5051 </r>
       <r>     9.5536     7.2060   213.0806 </r>
       <r>     9.6335     4.6530   213.4523 </r>
       <r>     9.7134     3.5731   213.7377 </r>
       <r>     9.7932     4.0566   214.0617 </r>
       <r>     9.8731     4.8537   214.4494 </r>
       <r>     9.9530     5.7673   214.9100 </r>
       <r>    10.0329     7.5973   215.5169 </r>
       <r>    10.1127     9.4567   216.2722 </r>
       <r>    10.1926     9.0564   216.9956 </r>
       <r>    10.2725     6.5004   217.5148 </r>
       <r>    10.3524     4.4524   217.8704 </r>
       <r>    10.4322     4.4071   218.2224 </r>
       <r>    10.5121     5.7017   218.6778 </r>
       <r>    10.5920     7.2195   219.2545 </r>
       <r>    10.6719     8.0723   219.8993 </r>
       <r>    10.7517     8.0277   220.5405 </r>
       <r>    10.8316     8.2681   221.2009 </r>
       <r>    10.9115     9.6558   221.9721 </r>
       <r>    10.9914    10.5240   222.8127 </r>
       <r>    11.0712     9.1696   223.5451 </r>
       <r>    11.1511     7.1993   224.1201 </r>
       <r>    11.2310     7.6329   224.7298 </r>
       <r>    11.3109    10.7150   225.5857 </r>
       <r>    11.3907    13.0409   226.6273 </r>
       <r>    11.4706    11.4098   227.5386 </r>
       <r>    11.5505     7.0278   228.1000 </r>
       <r>    11.6303     3.8901   228.4107 </r>
       <r>    11.7102     3.8978   228.7220 </r>
       <r>    11.7901     5.7702   229.1829 </r>
       <r>    11.8700     7.1925   229.7574 </r>
       <r>    11.9498     6.5928   230.2840 </r>
       <r>    12.0297     4.2710   230.6251 </r>
       <r>    12.1096     1.9712   230.7826 </r>
       <r>    12.1895     0.7552   230.8429 </r>
       <r>    12.2693     0.3667   230.8722 </r>
       <r>    12.3492     0.5198   230.9137 </r>
       <r>    12.4291     1.2263   231.0117 </r>
       <r>    12.5090     2.0479   231.1752 </r>
       <r>    12.5888     2.2874   231.3579 </r>
       <r>    12.6687     1.9725   231.5155 </r>
       <r>    12.7486     1.7774   231.6575 </r>
       <r>    12.8285     1.8432   231.8047 </r>
       <r>    12.9083     1.5941   231.9320 </r>
       <r>    12.9882     0.8665   232.0012 </r>
       <r>    13.0681     0.1892   232.0163 </r>
       <r>    13.1479    -0.0817   232.0098 </r>
       <r>    13.2278    -0.0817   232.0033 </r>
       <r>    13.3077    -0.0321   232.0007 </r>
       <r>    13.3876    -0.0076   232.0001 </r>
       <r>    13.4674    -0.0012   232.0000 </r>
       <r>    13.5473    -0.0001   232.0000 </r>
       <r>    13.6272    -0.0000   232.0000 </r>
       <r>    13.7071    -0.0000   232.0000 </r>
       <r>    13.7869    -0.0000   232.0000 </r>
       <r>    13.8668    -0.0000   232.0000 </r>
       <r>    13.9467    -0.0000   232.0000 </r>
       <r>    14.0266    -0.0000   232.0000 </r>
       <r>    14.1064    -0.0000   232.0000 </r>
       <r>    14.1863     0.0000   232.0000 </r>
       <r>    14.2662     0.0000   232.0000 </r>
       <r>    14.3461     0.0000   232.0000 </r>
       <r>    14.4259     0.0000   232.0000 </r>
       <r>    14.5058     0.0000   232.0000 </r>
       <r>    14.5857     0.0000   232.0000 </r>
       <r>    14.6656     0.0000   232.0000 </r>
       <r>    14.7454     0.0000   232.0000 </r>
       <r>    14.8253     0.0000   232.0000 </r>
      </set>
     </set>
    </array>
   </total>
  </dos>
 </calculation>
 <structure name="finalpos" >
  <crystal>
   <varray name="basis" >
    <v>       5.13359547       0.00000000       0.00000000 </v>
    <v>       2.56679773       4.44582409       0.00000000 </v>
    <v>       0.00000000       0.00000000      29.67047119 </v>
   </varray>
   <i name="volume">    677.17101477 </i>
   <varray name="rec_basis" >
    <v>       0.19479525      -0.11246509       0.00000000 </v>
    <v>       0.00000000       0.22493018       0.00000000 </v>
    <v>       0.00000000       0.00000000       0.03370354 </v>
   </varray>
  </crystal>
  <varray name="positions" >
   <v>       0.00002005      -0.00001206      -0.00034984 </v>
   <v>      -0.00000709       0.50001418      -0.00034527 </v>
   <v>       0.49999201      -0.00001206      -0.00034984 </v>
   <v>       0.49999147       0.50001705      -0.00032766 </v>
   <v>       0.16666456       0.16667088       0.06885437 </v>
   <v>       0.16678097       0.66665828       0.06884161 </v>
   <v>       0.66658321       0.16683359       0.06881753 </v>
   <v>       0.66656075       0.66665828       0.06884161 </v>
   <v>       0.33336755       0.33336129       0.13657097 </v>
   <v>       0.33333563       0.83332874       0.13657600 </v>
   <v>       0.83327116       0.33336129       0.13657097 </v>
   <v>       0.83328048       0.83343904       0.13656872 </v>
   <v>       0.00006331      -0.00005348       0.20476112 </v>
   <v>      -0.00002676       0.50005352       0.20475483 </v>
   <v>       0.49999017      -0.00005348       0.20476112 </v>
   <v>       0.49995729       0.50008542       0.20474680 </v>
   <v>       0.16670661       0.16658678       0.27281828 </v>
   <v>       0.16677505       0.66667571       0.27282869 </v>
   <v>       0.66660853       0.16678294       0.27279018 </v>
   <v>       0.66654924       0.66667571       0.27282869 </v>
   <v>       0.33338757       0.33331479       0.34096366 </v>
   <v>       0.33328126       0.83343747       0.34101353 </v>
   <v>       0.83329764       0.33331479       0.34096366 </v>
   <v>       0.83323581       0.83352838       0.34088573 </v>
   <v>      -0.00021061       0.00010873       0.40870868 </v>
   <v>      -0.00010559       0.50021117       0.40875514 </v>
   <v>       0.50010188       0.00010873       0.40870868 </v>
   <v>       0.50000627       0.49998746       0.40860149 </v>
   <v>       0.16671269       0.16657463       0.47784073 </v>
   <v>       0.16694142       0.66666234       0.47775680 </v>
   <v>       0.66651181       0.16697638       0.47780896 </v>
   <v>       0.66639624       0.66666234       0.47775680 </v>
   <v>       0.91697476       0.66605049       0.56487301 </v>
   <v>       0.91700467       0.66599066       0.59034737 </v>
  </varray>
 </structure>
</modeling>
