unknown system                          
           1
     5.133595    0.000000    0.000000
     2.566798    4.445824    0.000000
     0.000000    0.000000   29.670471
   Cu   H 
    32     2
Direct configuration=     1
   0.00000000  0.00000000  0.00000000
   1.00000000  0.50000000  0.00000000
   0.50000000  0.00000000  0.00000000
   0.50000000  0.50000000  0.00000000
   0.16666667  0.16666667  0.07063526
   0.16666667  0.66666667  0.07063526
   0.66666667  0.16666667  0.07063526
   0.66666667  0.66666667  0.07063526
   0.33333333  0.33333333  0.13847021
   0.33333333  0.83333333  0.13847021
   0.83333333  0.33333333  0.13847021
   0.83333333  0.83333333  0.13847021
   0.00000000  0.00000000  0.20667428
   1.00000000  0.50000000  0.20667428
   0.50000000  0.00000000  0.20667428
   0.50000000  0.50000000  0.20667428
   0.16666667  0.16666667  0.27488859
   0.16666667  0.66666667  0.27488859
   0.66666667  0.16666667  0.27488859
   0.66666667  0.66666667  0.27488859
   0.33333333  0.33333333  0.34319917
   0.33333333  0.83333333  0.34319917
   0.83333333  0.33333333  0.34319917
   0.83333333  0.83333333  0.34319917
   0.00000000  0.00000000  0.41105828
   1.00000000  0.50000000  0.41105828
   0.50000000  0.00000000  0.41105828
   0.50000000  0.50000000  0.41105828
   0.16666667  0.16666667  0.48054462
   0.16666667  0.66666667  0.48054462
   0.66666667  0.16666667  0.48054462
   0.66666667  0.66666667  0.48054462
   0.91666667  0.66666667  0.53425930
   0.91666667  0.66666667  0.55940215
Direct configuration=     2
   0.00012969  0.00000786  0.00023617
   0.00004111  0.49991777  0.00024325
   0.49986244  0.00000786  0.00023617
   0.49995710  0.50008580  0.00022918
   0.16665628  0.16668744  0.07041633
   0.16670643  0.66663209  0.07042236
   0.66664579  0.16670842  0.07039642
   0.66666148  0.66663209  0.07042236
   0.33344634  0.33323486  0.13845366
   0.33331825  0.83336350  0.13845221
   0.83331880  0.33323486  0.13845366
   0.83326736  0.83346528  0.13843341
   0.00006128  0.00004491  0.20669480
   0.00004140  0.49991720  0.20671141
   0.49989381  0.00004491  0.20669480
   0.50000504  0.49998992  0.20664762
   0.16673435  0.16653131  0.27486114
   0.16697638  0.66662734  0.27491473
   0.66654113  0.16691775  0.27489769
   0.66639628  0.66662734  0.27491473
   0.33353898  0.33318236  0.34324710
   0.33330889  0.83338222  0.34326872
   0.83327866  0.33318236  0.34324710
   0.83318462  0.83363077  0.34315767
  -0.00013420 -0.00011190  0.41116230
   0.99988238  0.50023523  0.41109423
   0.50024610 -0.00011190  0.41116230
   0.50003359  0.49993283  0.41117256
   0.16750600  0.16498799  0.48026153
   0.16894159  0.66676904  0.48009026
   0.66591187  0.16817626  0.48014731
   0.66428936  0.66676904  0.48009026
   0.91667314  0.66665372  0.53330472
   0.91667826  0.66664349  0.56140494
Direct configuration=     3
   0.00007191  0.00000436  0.00013094
   0.00002279  0.49995441  0.00013487
   0.49992373  0.00000436  0.00013094
   0.49997622  0.50004757  0.00012707
   0.16666091  0.16667819  0.07051388
   0.16668871  0.66664750  0.07051722
   0.66665509  0.16668982  0.07050283
   0.66666379  0.66664750  0.07051722
   0.33339599  0.33327873  0.13846103
   0.33332497  0.83335006  0.13846023
   0.83332527  0.33327873  0.13846103
   0.83329675  0.83340649  0.13844981
   0.00003397  0.00002490  0.20668566
   0.00002295  0.49995409  0.20669487
   0.49994112  0.00002490  0.20668566
   0.50000280  0.49999441  0.20665950
   0.16670419  0.16659162  0.27487337
   0.16683839  0.66664486  0.27490308
   0.66659706  0.16680588  0.27489364
   0.66651675  0.66664486  0.27490308
   0.33344735  0.33324962  0.34322574
   0.33331978  0.83336044  0.34323773
   0.83330302  0.33324962  0.34322574
   0.83325088  0.83349825  0.34317616
  -0.00007440 -0.00006204  0.41111595
   0.99993479  0.50013043  0.41107821
   0.50013645 -0.00006204  0.41111595
   0.50001862  0.49996275  0.41112164
   0.16713204  0.16573592  0.48038766
   0.16792800  0.66672343  0.48029270
   0.66624817  0.16750366  0.48032433
   0.66534857  0.66672343  0.48029270
   0.91667026  0.66665949  0.53373003
   0.91667309  0.66665381  0.56051260
Direct configuration=     4
   0.00020838  0.00001223  0.00038275
   0.00006515  0.49986970  0.00039601
   0.49977939  0.00001223  0.00038275
   0.49993023  0.50013954  0.00037063
   0.16664844  0.16670312  0.07029072
   0.16672843  0.66660982  0.07029936
   0.66663414  0.16673172  0.07025452
   0.66666174  0.66660982  0.07029936
   0.33350071  0.33317875  0.13842066
   0.33330806  0.83338389  0.13841870
   0.83332054  0.33317875  0.13842066
   0.83323362  0.83353276  0.13839055
   0.00008996  0.00006027  0.20670704
   0.00005408  0.49989185  0.20673412
   0.49984977  0.00006027  0.20670704
   0.50000642  0.49998716  0.20662991
   0.16677083  0.16645834  0.27485484
   0.16716131  0.66660087  0.27493515
   0.66646278  0.16707444  0.27490169
   0.66623782  0.66660087  0.27493515
   0.33365062  0.33309729  0.34329855
   0.33329401  0.83341198  0.34333636
   0.83325208  0.33309729  0.34329855
   0.83310032  0.83379936  0.34315265
  -0.00023093 -0.00016073  0.41120526
   0.99982063  0.50035874  0.41110056
   0.50039166 -0.00016073  0.41120526
   0.50007098  0.49985803  0.41120542
   0.16792497  0.16415005  0.48007348
   0.16998182  0.66682121  0.47983655
   0.66553081  0.16893837  0.47989091
   0.66319696  0.66682121  0.47983655
   0.91667791  0.66664419  0.53439352
   0.91668634  0.66662731  0.56097786
Direct configuration=     5
   0.00037870  0.00002206  0.00069702
   0.00011801  0.49976398  0.00072193
   0.49959924  0.00002206  0.00069702
   0.49987283  0.50025433  0.00067460
   0.16663288  0.16673423  0.07001221
   0.16677801  0.66656280  0.07002747
   0.66660800  0.16678401  0.06994461
   0.66665919  0.66656280  0.07002747
   0.33363141  0.33305395  0.13837026
   0.33328694  0.83342611  0.13836687
   0.83331463  0.33305395  0.13837026
   0.83315483  0.83369035  0.13831660
   0.00015983  0.00010441  0.20673373
   0.00009292  0.49981416  0.20678311
   0.49973576  0.00010441  0.20673373
   0.50001094  0.49997811  0.20659297
   0.16685399  0.16629201  0.27483170
   0.16756432  0.66654598  0.27497517
   0.66629519  0.16740961  0.27491174
   0.66588970  0.66654598  0.27497517
   0.33390431  0.33290717  0.34338941
   0.33326185  0.83347630  0.34345946
   0.83318851  0.33290717  0.34338941
   0.83291242  0.83417517  0.34312330
  -0.00042629 -0.00028390  0.41131673
   0.99967816  0.50064369  0.41112845
   0.50071018 -0.00028390  0.41131673
   0.50013633  0.49972734  0.41130997
   0.16891460  0.16217081  0.47968138
   0.17254509  0.66694326  0.47926726
   0.66463552  0.17072896  0.47934997
   0.66051166  0.66694326  0.47926726
   0.91668745  0.66662509  0.53522159
   0.91670288  0.66659424  0.56155853
Direct configuration=     6
   0.00040930  0.00002383  0.00075348
   0.00012751  0.49974499  0.00078049
   0.49956687  0.00002383  0.00075348
   0.49986252  0.50027496  0.00072921
   0.16663009  0.16673982  0.06996217
   0.16678691  0.66655436  0.06997862
   0.66660330  0.16679340  0.06988894
   0.66665873  0.66655436  0.06997862
   0.33365489  0.33303154  0.13836121
   0.33328315  0.83343370  0.13835755
   0.83331357  0.33303154  0.13836121
   0.83314067  0.83371866  0.13830331
   0.00017238  0.00011234  0.20673853
   0.00009990  0.49980021  0.20679191
   0.49971528  0.00011234  0.20673853
   0.50001176  0.49997649  0.20658633
   0.16686894  0.16626213  0.27482755
   0.16763673  0.66653612  0.27498236
   0.66626508  0.16746983  0.27491354
   0.66582716  0.66653612  0.27498236
   0.33394989  0.33287302  0.34340573
   0.33325607  0.83348786  0.34348157
   0.83317709  0.33287302  0.34340573
   0.83287866  0.83424268  0.34311803
  -0.00046139 -0.00030602  0.41133675
   0.99965256  0.50069488  0.41113347
   0.50076741 -0.00030602  0.41133675
   0.50014807  0.49970386  0.41132875
   0.16909239  0.16181522  0.47961094
   0.17300559  0.66696518  0.47916498
   0.66447467  0.17105065  0.47925279
   0.66002922  0.66696518  0.47916498
   0.91668917  0.66662166  0.53537036
   0.91670585  0.66658830  0.56166285
Direct configuration=     7
   0.00041556  0.00000851  0.00084431
   0.00011155  0.49977691  0.00088211
   0.49957593  0.00000851  0.00084431
   0.49985192  0.50029617  0.00081472
   0.16662737  0.16674525  0.07005220
   0.16677300  0.66655172  0.07006012
   0.66661396  0.16677208  0.06994366
   0.66667529  0.66655172  0.07006012
   0.33356039  0.33305839  0.13821278
   0.33328310  0.83343379  0.13821082
   0.83338121  0.33305839  0.13821278
   0.83318748  0.83362503  0.13817001
   0.00013377  0.00001486  0.20672309
   0.00001641  0.49996718  0.20678610
   0.49985137  0.00001486  0.20672309
   0.50000127  0.49999746  0.20655742
   0.16683664  0.16632673  0.27489242
   0.16758580  0.66652443  0.27501269
   0.66626641  0.16746718  0.27491183
   0.66588977  0.66652443  0.27501269
   0.33383387  0.33290283  0.34345674
   0.33324108  0.83351785  0.34357237
   0.83326329  0.33290283  0.34345674
   0.83290523  0.83418954  0.34313903
  -0.00065588 -0.00020743  0.41112831
   0.99965722  0.50068556  0.41103864
   0.50086331 -0.00020743  0.41112831
   0.50027704  0.49944591  0.41094415
   0.16878655  0.16242691  0.47942496
   0.17203154  0.66696222  0.47895559
   0.66473050  0.17053900  0.47903210
   0.66100623  0.66696222  0.47895559
   0.91669878  0.66660244  0.53635069
   0.91672302  0.66655396  0.56203265
Direct configuration=     8
   0.00041962 -0.00000143  0.00090321
   0.00010119  0.49979761  0.00094801
   0.49958181 -0.00000143  0.00090321
   0.49984504  0.50030992  0.00087017
   0.16662561  0.16674878  0.07011058
   0.16676397  0.66655000  0.07011297
   0.66662087  0.16675826  0.06997915
   0.66668603  0.66655000  0.07011297
   0.33349911  0.33307581  0.13811652
   0.33328307  0.83343386  0.13811567
   0.83342508  0.33307581  0.13811652
   0.83321784  0.83356431  0.13808356
   0.00010873 -0.00004836  0.20671308
  -0.00003773  0.50007546  0.20678233
   0.49993963 -0.00004836  0.20671308
   0.49999447  0.50001106  0.20653867
   0.16681569  0.16636862  0.27493450
   0.16755277  0.66651685  0.27503236
   0.66626727  0.16746546  0.27491071
   0.66593038  0.66651685  0.27503236
   0.33375864  0.33292217  0.34348981
   0.33323135  0.83353730  0.34363126
   0.83331919  0.33292217  0.34348981
   0.83292246  0.83415508  0.34315265
  -0.00078202 -0.00014349  0.41099312
   0.99966024  0.50067951  0.41097714
   0.50092551 -0.00014349  0.41099312
   0.50036068  0.49927863  0.41069472
   0.16858820  0.16282360  0.47930435
   0.17139986  0.66696030  0.47881979
   0.66489641  0.17020718  0.47888898
   0.66163984  0.66696030  0.47881979
   0.91670501  0.66658997  0.53698645
   0.91673415  0.66653170  0.56227247
Direct configuration=     9
   0.00041531 -0.00000773  0.00093016
   0.00009256  0.49981488  0.00097892
   0.49959243 -0.00000773  0.00093016
   0.49984293  0.50031414  0.00089544
   0.16662683  0.16674634  0.07015027
   0.16675819  0.66655222  0.07014965
   0.66662602  0.16674796  0.07000860
   0.66668959  0.66655222  0.07014965
   0.33346508  0.33308700  0.13807100
   0.33328398  0.83343203  0.13807098
   0.83344792  0.33308700  0.13807100
   0.83323528  0.83352944  0.13804368
   0.00009903 -0.00008000  0.20670048
  -0.00006367  0.50012735  0.20677291
   0.49998097 -0.00008000  0.20670048
   0.49999038  0.50001924  0.20652356
   0.16680268  0.16639463  0.27495946
   0.16752173  0.66651683  0.27504263
   0.66627306  0.16745388  0.27491037
   0.66596143  0.66651683  0.27504263
   0.33368774  0.33293908  0.34348909
   0.33322012  0.83355976  0.34364347
   0.83337318  0.33293908  0.34348909
   0.83294434  0.83411132  0.34315030
  -0.00082521 -0.00010672  0.41090609
   0.99967215  0.50065569  0.41093195
   0.50093193 -0.00010672  0.41090609
   0.50039618  0.49920764  0.41054981
   0.16844089  0.16311823  0.47923740
   0.17097085  0.66695062  0.47874440
   0.66501794  0.16996412  0.47881266
   0.66207853  0.66695062  0.47874440
   0.91670854  0.66658291  0.53722157
   0.91674109  0.66651782  0.56261477
Direct configuration=    10
   0.00040236 -0.00002665  0.00101101
   0.00006666  0.49986667  0.00107164
   0.49962429 -0.00002665  0.00101101
   0.49983660  0.50032681  0.00097123
   0.16663048  0.16673904  0.07026934
   0.16674085  0.66655888  0.07025967
   0.66664147  0.16671706  0.07009695
   0.66670027  0.66655888  0.07025967
   0.33336299  0.33312057  0.13793447
   0.33328671  0.83342657  0.13793692
   0.83351644  0.33312057  0.13793447
   0.83328760  0.83342481  0.13792402
   0.00006995 -0.00017492  0.20666268
  -0.00014151  0.50028302  0.20674465
   0.50010497 -0.00017492  0.20666268
   0.49997810  0.50004380  0.20647824
   0.16676367  0.16647267  0.27503436
   0.16742862  0.66651680  0.27507344
   0.66629043  0.16741915  0.27490934
   0.66605459  0.66651680  0.27507344
   0.33347507  0.33298981  0.34348691
   0.33318642  0.83362716  0.34368009
   0.83353512  0.33298981  0.34348691
   0.83300997  0.83398006  0.34314325
  -0.00095479  0.00000360  0.41064498
   0.99970788  0.50058423  0.41079640
   0.50095119  0.00000360  0.41064498
   0.50050267  0.49899465  0.41011507
   0.16799894  0.16400212  0.47903657
   0.16968384  0.66692156  0.47851821
   0.66538252  0.16923495  0.47858370
   0.66339460  0.66692156  0.47851821
   0.91671913  0.66656174  0.53792694
   0.91676192  0.66647617  0.56364166
Direct configuration=    11
   0.00037647 -0.00006448  0.00117270
   0.00001487  0.49997026  0.00125708
   0.49968801 -0.00006448  0.00117270
   0.49982393  0.50035214  0.00112283
   0.16663779  0.16672443  0.07050747
   0.16670616  0.66657219  0.07047972
   0.66667237  0.16665526  0.07027364
   0.66672164  0.66657219  0.07047972
   0.33315882  0.33318771  0.13766141
   0.33329218  0.83341565  0.13766879
   0.83365347  0.33318771  0.13766141
   0.83339222  0.83321556  0.13768471
   0.00001178 -0.00036476  0.20658708
  -0.00029719  0.50059437  0.20668812
   0.50035299 -0.00036476  0.20658708
   0.49995354  0.50009293  0.20638760
   0.16668563  0.16662873  0.27518414
   0.16724238  0.66651673  0.27513506
   0.66632516  0.16734967  0.27490728
   0.66624090  0.66651673  0.27513506
   0.33304971  0.33309128  0.34348256
   0.33311902  0.83376197  0.34375333
   0.83385901  0.33309128  0.34348256
   0.83314124  0.83371753  0.34312915
  -0.00121394  0.00022423  0.41012275
   0.99977934  0.50044131  0.41052530
   0.50098971  0.00022423  0.41012275
   0.50071566  0.49856868  0.40924560
   0.16711504  0.16576992  0.47863489
   0.16710982  0.66686345  0.47806585
   0.66611169  0.16777661  0.47812579
   0.66602673  0.66686345  0.47806585
   0.91674030  0.66651940  0.53933768
   0.91680356  0.66639288  0.56569545
Direct configuration=    12
   0.00038466 -0.00005250  0.00112151
   0.00003127  0.49993747  0.00119837
   0.49966784 -0.00005250  0.00112151
   0.49982794  0.50034412  0.00107484
   0.16663547  0.16672905  0.07043208
   0.16671714  0.66656798  0.07041006
   0.66666259  0.16667482  0.07021771
   0.66671488  0.66656798  0.07041006
   0.33322345  0.33316645  0.13774785
   0.33329045  0.83341911  0.13775367
   0.83361009  0.33316645  0.13774785
   0.83335910  0.83328180  0.13776047
   0.00003019 -0.00030467  0.20661101
  -0.00024791  0.50049581  0.20670602
   0.50027447 -0.00030467  0.20661101
   0.49996131  0.50007738  0.20641629
   0.16671034  0.16657933  0.27513672
   0.16730134  0.66651675  0.27511555
   0.66631417  0.16737166  0.27490794
   0.66618192  0.66651675  0.27511555
   0.33318436  0.33305916  0.34348394
   0.33314035  0.83371929  0.34373014
   0.83375647  0.33305916  0.34348394
   0.83309968  0.83380064  0.34313361
  -0.00113190  0.00015438  0.41028807
   0.99975672  0.50048656  0.41061112
   0.50097752  0.00015438  0.41028807
   0.50064824  0.49870353  0.40952085
   0.16739486  0.16521029  0.47876205
   0.16792468  0.66688185  0.47820905
   0.66588086  0.16823828  0.47827075
   0.66519347  0.66688185  0.47820905
   0.91673360  0.66653281  0.53889108
   0.91679038  0.66641924  0.56504528
Direct configuration=    13
   0.00037057 -0.00005571  0.00115815
   0.00002027  0.49995946  0.00123878
   0.49968514 -0.00005571  0.00115815
   0.49982878  0.50034244  0.00111125
   0.16664642  0.16670716  0.07044148
   0.16671988  0.66657877  0.07042104
   0.66666713  0.16666574  0.07023631
   0.66670135  0.66657877  0.07042104
   0.33323711  0.33315863  0.13777408
   0.33329482  0.83341035  0.13778070
   0.83360426  0.33315863  0.13777408
   0.83335527  0.83328946  0.13778569
   0.00006126 -0.00028749  0.20657471
  -0.00022625  0.50045249  0.20667140
   0.50022623 -0.00028749  0.20657471
   0.49995897  0.50008205  0.20638321
   0.16671305  0.16657389  0.27513742
   0.16728023  0.66653628  0.27511111
   0.66632156  0.16735687  0.27490234
   0.66618348  0.66653628  0.27511111
   0.33303721  0.33306797  0.34337664
   0.33309677  0.83380647  0.34361958
   0.83389482  0.33306797  0.34337664
   0.83314591  0.83370818  0.34306626
  -0.00101964  0.00015523  0.41020576
   0.99980115  0.50039770  0.41051809
   0.50086441  0.00015523  0.41020576
   0.50060960  0.49878081  0.40946898
   0.16728728  0.16542543  0.47866701
   0.16767847  0.66684931  0.47810694
   0.66594645  0.16810710  0.47816795
   0.66547221  0.66684931  0.47810694
   0.91673783  0.66652434  0.53939848
   0.91679799  0.66640402  0.56549127
Direct configuration=    14
   0.00032828 -0.00006532  0.00126807
  -0.00001273  0.50002545  0.00136002
   0.49973704 -0.00006532  0.00126807
   0.49983130  0.50033740  0.00122049
   0.16667926  0.16664148  0.07046965
   0.16672809  0.66661115  0.07045400
   0.66668074  0.16663851  0.07029211
   0.66666075  0.66661115  0.07045400
   0.33327807  0.33313516  0.13785278
   0.33330796  0.83338408  0.13786178
   0.83358677  0.33313516  0.13785278
   0.83334377  0.83331246  0.13786137
   0.00015445 -0.00023597  0.20646581
  -0.00016127  0.50032255  0.20656756
   0.50008151 -0.00023597  0.20646581
   0.49995195  0.50009609  0.20628398
   0.16672121  0.16655759  0.27513950
   0.16721693  0.66659489  0.27509778
   0.66634375  0.16731249  0.27488556
   0.66618819  0.66659489  0.27509778
   0.33259574  0.33309441  0.34305477
   0.33296600  0.83406800  0.34328789
   0.83430984  0.33309441  0.34305477
   0.83328460  0.83343079  0.34286420
  -0.00068286  0.00015778  0.40995881
   0.99993444  0.50013111  0.41023899
   0.50052508  0.00015778  0.40995881
   0.50049368  0.49901264  0.40931338
   0.16696457  0.16607087  0.47838190
   0.16693986  0.66675171  0.47780060
   0.66614321  0.16771358  0.47785955
   0.66630843  0.66675171  0.47780060
   0.91675053  0.66649895  0.54092067
   0.91682084  0.66635833  0.56682925
Direct configuration=    15
   0.00024372 -0.00008455  0.00148791
  -0.00007871  0.50015743  0.00160248
   0.49984083 -0.00008455  0.00148791
   0.49983635  0.50032731  0.00143896
   0.16674494  0.16651012  0.07052600
   0.16674452  0.66667591  0.07051991
   0.66670798  0.16658405  0.07040371
   0.66657957  0.66667591  0.07051991
   0.33335999  0.33308822  0.13801017
   0.33333423  0.83333155  0.13802395
   0.83355179  0.33308822  0.13801017
   0.83332078  0.83335844  0.13801272
   0.00034084 -0.00013292  0.20624801
  -0.00003133  0.50006265  0.20635987
   0.49979208 -0.00013292  0.20624801
   0.49993792  0.50012417  0.20608552
   0.16673751  0.16652498  0.27514366
   0.16709032  0.66671209  0.27507112
   0.66638813  0.16722374  0.27485199
   0.66619759  0.66671209  0.27507112
   0.33171281  0.33314729  0.34241102
   0.33270447  0.83459105  0.34262451
   0.83513990  0.33314729  0.34241102
   0.83356199  0.83287602  0.34246009
  -0.00000931  0.00016287  0.40946492
   0.00020102  0.49959795  0.40968079
   0.49984644  0.00016287  0.40946492
   0.50026185  0.49947630  0.40900218
   0.16631913  0.16736174  0.47781168
   0.16546262  0.66655651  0.47718793
   0.66653674  0.16692652  0.47724275
   0.66798087  0.66655651  0.47718793
   0.91677592  0.66644815  0.54396506
   0.91686652  0.66626696  0.56950520
Direct configuration=    16
   0.00007458 -0.00012301  0.00192759
  -0.00021069  0.50042138  0.00208742
   0.50004843 -0.00012301  0.00192759
   0.49984643  0.50030713  0.00187591
   0.16687630  0.16624740  0.07063870
   0.16677738  0.66680543  0.07065173
   0.66676244  0.16647512  0.07062691
   0.66641719  0.66680543  0.07065173
   0.33352383  0.33299434  0.13832495
   0.33338676  0.83322648  0.13834828
   0.83348183  0.33299434  0.13832495
   0.83327479  0.83345042  0.13831543
   0.00071362  0.00007318  0.20581240
   0.00022857  0.49954286  0.20594450
   0.49921320  0.00007318  0.20581240
   0.49990984  0.50018032  0.20568859
   0.16677011  0.16645977  0.27515199
   0.16683709  0.66694651  0.27501780
   0.66647689  0.16704622  0.27478485
   0.66621640  0.66694651  0.27501780
   0.32994694  0.33325305  0.34112353
   0.33218142  0.83563717  0.34129775
   0.83680001  0.33325305  0.34112353
   0.83411676  0.83176648  0.34165187
   0.00133780  0.00017306  0.40847713
   0.00073419  0.49853162  0.40856439
   0.49848914  0.00017306  0.40847713
   0.49979819  0.50040362  0.40837977
   0.16502826  0.16994348  0.47667124
   0.16250816  0.66616611  0.47596258
   0.66732380  0.16535241  0.47600914
   0.67132574  0.66616611  0.47596258
   0.91682672  0.66634657  0.55005383
   0.91695789  0.66608421  0.57485711
Direct configuration=    17
   0.00019322 -0.00009603  0.00161919
  -0.00011812  0.50023624  0.00174727
   0.49990281 -0.00009603  0.00161919
   0.49983936  0.50032128  0.00156942
   0.16678416  0.16643168  0.07055965
   0.16675433  0.66671458  0.07055927
   0.66672424  0.16655152  0.07047035
   0.66653109  0.66671458  0.07055927
   0.33340891  0.33306019  0.13810415
   0.33334991  0.83330018  0.13812078
   0.83353090  0.33306019  0.13810415
   0.83330705  0.83338590  0.13810310
   0.00045214 -0.00007138  0.20611795
   0.00004627  0.49990746  0.20623585
   0.49961924 -0.00007138  0.20611795
   0.49992953  0.50014093  0.20596701
   0.16674724  0.16650551  0.27514615
   0.16701471  0.66678208  0.27505520
   0.66641463  0.16717074  0.27483194
   0.66620321  0.66678208  0.27505520
   0.33118558  0.33317887  0.34202662
   0.33254830  0.83490339  0.34222838
   0.83563556  0.33317887  0.34202662
   0.83372763  0.83254474  0.34221878
   0.00039290  0.00016592  0.40916999
   0.00036021  0.49927958  0.40934746
   0.49944119  0.00016592  0.40916999
   0.50012342  0.49975317  0.40881635
   0.16593371  0.16813257  0.47747118
   0.16458051  0.66643995  0.47682208
   0.66677173  0.16645654  0.47687443
   0.66897954  0.66643995  0.47682208
   0.91679109  0.66641782  0.54578298
   0.91689380  0.66621240  0.57110312
Direct configuration=    18
   0.00017088 -0.00008581  0.00165478
  -0.00012301  0.50024603  0.00178476
   0.49991493 -0.00008581  0.00165478
   0.49984653  0.50030694  0.00160687
   0.16679025  0.16641950  0.07057193
   0.16676380  0.66671401  0.07057567
   0.66672177  0.16655645  0.07049762
   0.66652219  0.66671401  0.07057567
   0.33341997  0.33305895  0.13813664
   0.33335656  0.83328688  0.13815170
   0.83352109  0.33305895  0.13813664
   0.83330600  0.83338799  0.13813676
   0.00046685 -0.00004529  0.20611735
   0.00007044  0.49985912  0.20623234
   0.49957843 -0.00004529  0.20611735
   0.49993378  0.50013245  0.20597450
   0.16675636  0.16648728  0.27503079
   0.16697749  0.66681775  0.27495949
   0.66643257  0.16713486  0.27475371
   0.66620476  0.66681775  0.27495949
   0.33126210  0.33319637  0.34191646
   0.33258198  0.83483603  0.34210008
   0.83554152  0.33319637  0.34191646
   0.83371011  0.83257978  0.34214029
   0.00049795  0.00016629  0.40905895
   0.00039994  0.49920011  0.40919783
   0.49933575  0.00016629  0.40905895
   0.50007787  0.49984427  0.40875119
   0.16593627  0.16812747  0.47736952
   0.16463638  0.66644026  0.47671384
   0.66676687  0.16646626  0.47677172
   0.66892336  0.66644026  0.47671384
   0.91679591  0.66640818  0.54636888
   0.91690235  0.66619529  0.57183627
Direct configuration=    19
   0.00010388 -0.00005515  0.00176157
  -0.00013770  0.50027540  0.00189721
   0.49995127 -0.00005515  0.00176157
   0.49986804  0.50026393  0.00171923
   0.16680851  0.16638297  0.07060879
   0.16679222  0.66671230  0.07062486
   0.66671438  0.16657123  0.07057944
   0.66649548  0.66671230  0.07062486
   0.33345314  0.33305522  0.13823411
   0.33337651  0.83324697  0.13824444
   0.83349165  0.33305522  0.13823411
   0.83330287  0.83339426  0.13823771
   0.00051099  0.00003300  0.20611557
   0.00014294  0.49971411  0.20622181
   0.49945601  0.00003300  0.20611557
   0.49994650  0.50010700  0.20599697
   0.16678370  0.16643260  0.27468472
   0.16686583  0.66692476  0.27467235
   0.66648638  0.16702724  0.27451901
   0.66620942  0.66692476  0.27467235
   0.33149169  0.33324888  0.34158597
   0.33268302  0.83463396  0.34171516
   0.83525943  0.33324888  0.34158597
   0.83365755  0.83268490  0.34190480
   0.00081313  0.00016743  0.40872582
   0.00051914  0.49896173  0.40874891
   0.49901944  0.00016743  0.40872582
   0.49994121  0.50011757  0.40855573
   0.16594392  0.16811215  0.47706455
   0.16480398  0.66644121  0.47638912
   0.66675228  0.16649544  0.47646359
   0.66875481  0.66644121  0.47638912
   0.91681036  0.66637927  0.54812659
   0.91692801  0.66614398  0.57403570
Direct configuration=    20
  -0.00003013  0.00000618  0.00197515
  -0.00016707  0.50033414  0.00212213
   0.50002395  0.00000618  0.00197515
   0.49991105  0.50017789  0.00194395
   0.16684505  0.16630991  0.07068251
   0.16684905  0.66670887  0.07072324
   0.66669960  0.16660079  0.07074307
   0.66644208  0.66670887  0.07072324
   0.33351948  0.33304776  0.13842904
   0.33341642  0.83316716  0.13842992
   0.83343276  0.33304776  0.13842904
   0.83329660  0.83340680  0.13843963
   0.00059926  0.00018957  0.20611199
   0.00028796  0.49942409  0.20620073
   0.49921116  0.00018957  0.20611199
   0.49997196  0.50005609  0.20604192
   0.16683838  0.16632323  0.27399258
   0.16664250  0.66713877  0.27409808
   0.66659400  0.16681200  0.27404960
   0.66621873  0.66713877  0.27409808
   0.33195085  0.33335390  0.34092501
   0.33288510  0.83422981  0.34094533
   0.83469525  0.33335390  0.34092501
   0.83355243  0.83289514  0.34143383
   0.00144349  0.00016969  0.40805955
   0.00075752  0.49848495  0.40785107
   0.49838682  0.00016969  0.40805955
   0.49966791  0.50066419  0.40816480
   0.16595924  0.16808152  0.47645460
   0.16513920  0.66644310  0.47573968
   0.66672310  0.16655380  0.47584733
   0.66841770  0.66644310  0.47573968
   0.91683928  0.66632144  0.55164201
   0.91697933  0.66604135  0.57843456
Direct configuration=    21
   0.00001175 -0.00001299  0.00190840
  -0.00015789  0.50031578  0.00205183
   0.50000124 -0.00001299  0.00190840
   0.49989761  0.50020478  0.00187371
   0.16683363  0.16633274  0.07065947
   0.16683129  0.66670994  0.07069249
   0.66670422  0.16659155  0.07069192
   0.66645877  0.66670994  0.07069249
   0.33349874  0.33305009  0.13836811
   0.33340395  0.83319211  0.13837195
   0.83345117  0.33305009  0.13836811
   0.83329856  0.83340288  0.13837652
   0.00057167  0.00014064  0.20611311
   0.00024263  0.49951473  0.20620732
   0.49928769  0.00014064  0.20611311
   0.49996400  0.50007200  0.20602787
   0.16682129  0.16635742  0.27420891
   0.16671230  0.66707188  0.27427757
   0.66656036  0.16687928  0.27419632
   0.66621582  0.66707188  0.27427757
   0.33180733  0.33332108  0.34113160
   0.33282194  0.83435613  0.34118595
   0.83487159  0.33332108  0.34113160
   0.83358529  0.83282943  0.34158103
   0.00124647  0.00016898  0.40826780
   0.00068301  0.49863397  0.40813170
   0.49858455  0.00016898  0.40826780
   0.49975333  0.50049334  0.40828699
   0.16595445  0.16809110  0.47664524
   0.16503442  0.66644251  0.47594267
   0.66673222  0.16653556  0.47603995
   0.66852306  0.66644251  0.47594267
   0.91683024  0.66633952  0.55054325
   0.91696329  0.66607342  0.57705967
Direct configuration=    22
  -0.00002390  0.00001480  0.00194678
  -0.00015576  0.50031153  0.00208824
   0.50000910  0.00001480  0.00194678
   0.49991340  0.50017320  0.00191703
   0.16683079  0.16633842  0.07069417
   0.16684049  0.66669469  0.07073278
   0.66669606  0.16660789  0.07074428
   0.66646482  0.66669469  0.07073278
   0.33349236  0.33306421  0.13839824
   0.33341347  0.83317307  0.13839755
   0.83344343  0.33306421  0.13839824
   0.83330861  0.83338278  0.13841282
   0.00053537  0.00015822  0.20613733
   0.00024760  0.49950481  0.20622179
   0.49930640  0.00015822  0.20613733
   0.49997918  0.50004165  0.20606998
   0.16682137  0.16635726  0.27395680
   0.16663085  0.66711519  0.27406447
   0.66659604  0.16680792  0.27401934
   0.66625396  0.66711519  0.27406447
   0.33215024  0.33334489  0.34099279
   0.33294401  0.83411197  0.34101714
   0.83450487  0.33334489  0.34099279
   0.83349115  0.83301770  0.34145384
   0.00129133  0.00018262  0.40809118
   0.00070578  0.49858844  0.40789928
   0.49852605  0.00018262  0.40809118
   0.49972061  0.50055878  0.40815675
   0.16605525  0.16788951  0.47651179
   0.16535235  0.66648607  0.47581354
   0.66667948  0.16664105  0.47592113
   0.66816158  0.66648607  0.47581354
   0.91683942  0.66632116  0.55171692
   0.91697426  0.66605148  0.57799002
Direct configuration=    23
  -0.00013087  0.00009819  0.00206195
  -0.00014938  0.50029875  0.00219745
   0.50003268  0.00009819  0.00206195
   0.49996077  0.50007845  0.00204698
   0.16682227  0.16635547  0.07079826
   0.16686810  0.66664895  0.07085365
   0.66667155  0.16665689  0.07090133
   0.66648295  0.66664895  0.07085365
   0.33347322  0.33310654  0.13848860
   0.33344203  0.83311594  0.13847436
   0.83342024  0.33310654  0.13848860
   0.83333877  0.83332246  0.13852171
   0.00042647  0.00021099  0.20620999
   0.00026249  0.49947502  0.20626520
   0.49936254  0.00021099  0.20620999
   0.50002471  0.49995058  0.20619630
   0.16682161  0.16635677  0.27320047
   0.16638648  0.66724513  0.27342517
   0.66670308  0.16659384  0.27348842