       N       E                     dE             d eps       ncg     rms          rms(c)
DAV:   1     0.155197595343E+05    0.15520E+05   -0.56068E+05 12296   0.190E+03
DAV:   2     0.225566441470E+04   -0.13264E+05   -0.12691E+05 12288   0.452E+02
DAV:   3    -0.387752652920E+03   -0.26434E+04   -0.23927E+04 12288   0.232E+02
DAV:   4    -0.608539237171E+03   -0.22079E+03   -0.20950E+03 13296   0.945E+01
DAV:   5    -0.614507252669E+03   -0.59680E+01   -0.59351E+01 13544   0.158E+01    0.112E+02
