<?xml version="1.0" encoding="ISO-8859-1"?>
<modeling>
 <generator>
  <i name="program" type="string">vasp </i>
  <i name="version" type="string">6.3.2  </i>
  <i name="subversion" type="string">27Jun22 (build Aug 17 2022 15:43:34) complex                          parallel </i>
  <i name="platform" type="string">tv2STDVTST </i>
  <i name="date" type="string">2025 02 06 </i>
  <i name="time" type="string">11:57:02 </i>
 </generator>
 <incar>
  <i type="int" name="ISTART">     0</i>
  <i type="string" name="PREC">Normal</i>
  <i type="int" name="ISPIN">     2</i>
  <i type="int" name="ICHARG">     2</i>
  <i type="int" name="IBRION">     2</i>
  <i name="EDIFF">      0.00020000</i>
  <i name="EDIFFG">     -0.03000000</i>
  <i type="int" name="NSW">   800</i>
  <i type="int" name="ISIF">     2</i>
  <i type="int" name="ISYM">     1</i>
  <i name="ENCUT">    400.00000000</i>
  <i name="POTIM">      0.50000000</i>
  <i type="logical" name="LREAL"> F  </i>
  <i type="int" name="ISMEAR">     1</i>
  <i name="SIGMA">      0.20000000</i>
  <i type="logical" name="LWAVE"> F  </i>
  <i type="logical" name="LCHARG"> F  </i>
  <i type="string" name="GGA">PE</i>
  <i type="int" name="IVDW">    11</i>
 </incar>
 <primitive_cell>
  <structure name="primitive_cell" >
   <crystal>
    <varray name="basis" >
     <v>      10.89000034       0.00000000       0.00000000 </v>
     <v>       0.00000000      10.89000034       0.00000000 </v>
     <v>       0.00000000       0.00000000      27.70499992 </v>
    </varray>
    <i name="volume">   3285.59432860 </i>
    <varray name="rec_basis" >
     <v>       0.09182736       0.00000000       0.00000000 </v>
     <v>       0.00000000       0.09182736       0.00000000 </v>
     <v>       0.00000000       0.00000000       0.03609457 </v>
    </varray>
   </crystal>
   <varray name="positions" >
    <v>       0.00000000       0.00000000       0.00000000 </v>
    <v>       0.00000000       0.33333333       0.00000000 </v>
    <v>       0.00000000       0.66666667       0.00000000 </v>
    <v>       0.33333333       0.00000000       0.00000000 </v>
    <v>       0.33333333       0.33333333       0.00000000 </v>
    <v>       0.33333333       0.66666667       0.00000000 </v>
    <v>       0.66666667       0.00000000       0.00000000 </v>
    <v>       0.66666667       0.33333333       0.00000000 </v>
    <v>       0.66666667       0.66666667       0.00000000 </v>
    <v>       0.16666667       0.16666667       0.00000000 </v>
    <v>       0.16666667       0.50000000       0.00000000 </v>
    <v>       0.16666667       0.83333333       0.00000000 </v>
    <v>       0.50000000       0.16666667       0.00000000 </v>
    <v>       0.50000000       0.50000000       0.00000000 </v>
    <v>       0.50000000       0.83333333       0.00000000 </v>
    <v>       0.83333333       0.16666667       0.00000000 </v>
    <v>       0.83333333       0.50000000       0.00000000 </v>
    <v>       0.83333333       0.83333333       0.00000000 </v>
    <v>       0.00000000       0.16666667       0.06551164 </v>
    <v>       0.00000000       0.50000000       0.06551164 </v>
    <v>       0.00000000       0.83333333       0.06551164 </v>
    <v>       0.33333333       0.16666667       0.06551164 </v>
    <v>       0.33333333       0.50000000       0.06551164 </v>
    <v>       0.33333333       0.83333333       0.06551164 </v>
    <v>       0.66666667       0.16666667       0.06551164 </v>
    <v>       0.66666667       0.50000000       0.06551164 </v>
    <v>       0.66666667       0.83333333       0.06551164 </v>
    <v>       0.16666667       0.00000000       0.06551164 </v>
    <v>       0.16666667       0.33333333       0.06551164 </v>
    <v>       0.16666667       0.66666667       0.06551164 </v>
    <v>       0.50000000       0.00000000       0.06551164 </v>
    <v>       0.50000000       0.33333333       0.06551164 </v>
    <v>       0.50000000       0.66666667       0.06551164 </v>
    <v>       0.83333333       0.00000000       0.06551164 </v>
    <v>       0.83333333       0.33333333       0.06551164 </v>
    <v>       0.83333333       0.66666667       0.06551164 </v>
    <v>       0.00000000       0.00000000       0.13119553 </v>
    <v>       0.00000000       0.33333333       0.13119553 </v>
    <v>       0.00000000       0.66666667       0.13119553 </v>
    <v>       0.33333333       0.00000000       0.13119553 </v>
    <v>       0.33333333       0.33333333       0.13119553 </v>
    <v>       0.33333333       0.66666667       0.13119553 </v>
    <v>       0.66666667       0.00000000       0.13119553 </v>
    <v>       0.66666667       0.33333333       0.13119553 </v>
    <v>       0.66666667       0.66666667       0.13119553 </v>
    <v>       0.16666667       0.16666667       0.13119553 </v>
    <v>       0.16666667       0.50000000       0.13119553 </v>
    <v>       0.16666667       0.83333333       0.13119553 </v>
    <v>       0.50000000       0.16666667       0.13119553 </v>
    <v>       0.50000000       0.50000000       0.13119553 </v>
    <v>       0.50000000       0.83333333       0.13119553 </v>
    <v>       0.83333333       0.16666667       0.13119553 </v>
    <v>       0.83333333       0.50000000       0.13119553 </v>
    <v>       0.83333333       0.83333333       0.13119553 </v>
    <v>       0.00000000       0.16666667       0.19620680 </v>
    <v>       0.00000000       0.50000000       0.19620680 </v>
    <v>       0.00000000       0.83333333       0.19620680 </v>
    <v>       0.33333333       0.16666667       0.19620680 </v>
    <v>       0.33333333       0.50000000       0.19620680 </v>
    <v>       0.33333333       0.83333333       0.19620680 </v>
    <v>       0.66666667       0.16666667       0.19620680 </v>
    <v>       0.66666667       0.50000000       0.19620680 </v>
    <v>       0.66666667       0.83333333       0.19620680 </v>
    <v>       0.16666667       0.00000000       0.19620680 </v>
    <v>       0.16666667       0.33333333       0.19620680 </v>
    <v>       0.16666667       0.66666667       0.19620680 </v>
    <v>       0.50000000       0.00000000       0.19620680 </v>
    <v>       0.50000000       0.33333333       0.19620680 </v>
    <v>       0.50000000       0.66666667       0.19620680 </v>
    <v>       0.83333333       0.00000000       0.19620680 </v>
    <v>       0.83333333       0.33333333       0.19620680 </v>
    <v>       0.83333333       0.66666667       0.19620680 </v>
    <v>       0.00000000       0.00000000       0.25873860 </v>
    <v>       0.00000000       0.33333333       0.25873860 </v>
    <v>       0.00000000       0.66666667       0.25873860 </v>
    <v>       0.33333333       0.00000000       0.25873860 </v>
    <v>       0.33333333       0.33333333       0.25873860 </v>
    <v>       0.33333333       0.66666667       0.25873860 </v>
    <v>       0.66666667       0.00000000       0.25873860 </v>
    <v>       0.66666667       0.33333333       0.25873860 </v>
    <v>       0.66666667       0.66666667       0.25873860 </v>
    <v>       0.16666667       0.16666667       0.25873860 </v>
    <v>       0.16666667       0.50000000       0.25873860 </v>
    <v>       0.16666667       0.83333333       0.25873860 </v>
    <v>       0.50000000       0.16666667       0.25873860 </v>
    <v>       0.50000000       0.50000000       0.25873860 </v>
    <v>       0.50000000       0.83333333       0.25873860 </v>
    <v>       0.83333333       0.16666667       0.25873860 </v>
    <v>       0.83333333       0.50000000       0.25873860 </v>
    <v>       0.83333333       0.83333333       0.25873860 </v>
    <v>       0.00000000       0.16666667       0.32119954 </v>
    <v>       0.00000000       0.50000000       0.32119954 </v>
    <v>       0.00000000       0.83333333       0.32119954 </v>
    <v>       0.33333333       0.16666667       0.32119954 </v>
    <v>       0.33333333       0.50000000       0.32119954 </v>
    <v>       0.33333333       0.83333333       0.32119954 </v>
    <v>       0.66666667       0.16666667       0.32119954 </v>
    <v>       0.66666667       0.50000000       0.32119954 </v>
    <v>       0.66666667       0.83333333       0.32119954 </v>
    <v>       0.16666667       0.00000000       0.32119954 </v>
    <v>       0.16666667       0.33333333       0.32119954 </v>
    <v>       0.16666667       0.66666667       0.32119954 </v>
    <v>       0.50000000       0.00000000       0.32119954 </v>
    <v>       0.50000000       0.33333333       0.32119954 </v>
    <v>       0.50000000       0.66666667       0.32119954 </v>
    <v>       0.83333333       0.00000000       0.32119954 </v>
    <v>       0.83333333       0.33333333       0.32119954 </v>
    <v>       0.83333333       0.66666667       0.32119954 </v>
    <v>       0.00000000       0.00000000       0.38476372 </v>
    <v>       0.00000000       0.33333333       0.38476372 </v>
    <v>       0.00000000       0.66666667       0.38476372 </v>
    <v>       0.33333333       0.00000000       0.38476372 </v>
    <v>       0.33333333       0.33333333       0.38476372 </v>
    <v>       0.33333333       0.66666667       0.38476372 </v>
    <v>       0.66666667       0.00000000       0.38476372 </v>
    <v>       0.66666667       0.33333333       0.38476372 </v>
    <v>       0.66666667       0.66666667       0.38476372 </v>
    <v>       0.16666667       0.16666667       0.38476372 </v>
    <v>       0.16666667       0.50000000       0.38476372 </v>
    <v>       0.16666667       0.83333333       0.38476372 </v>
    <v>       0.50000000       0.16666667       0.38476372 </v>
    <v>       0.50000000       0.50000000       0.38476372 </v>
    <v>       0.50000000       0.83333333       0.38476372 </v>
    <v>       0.83333333       0.16666667       0.38476372 </v>
    <v>       0.83333333       0.50000000       0.38476372 </v>
    <v>       0.83333333       0.83333333       0.38476372 </v>
    <v>       0.00000000       0.16666667       0.44736473 </v>
    <v>       0.00000000       0.50000000       0.44736473 </v>
    <v>       0.00000000       0.83333333       0.44736473 </v>
    <v>       0.33333333       0.16666667       0.44736473 </v>
    <v>       0.33333333       0.50000000       0.44736473 </v>
    <v>       0.33333333       0.83333333       0.44736473 </v>
    <v>       0.66666667       0.16666667       0.44736473 </v>
    <v>       0.66666667       0.50000000       0.44736473 </v>
    <v>       0.66666667       0.83333333       0.44736473 </v>
    <v>       0.16666667       0.00000000       0.44736473 </v>
    <v>       0.16666667       0.33333333       0.44736473 </v>
    <v>       0.16666667       0.66666667       0.44736473 </v>
    <v>       0.50000000       0.00000000       0.44736473 </v>
    <v>       0.50000000       0.33333333       0.44736473 </v>
    <v>       0.50000000       0.66666667       0.44736473 </v>
    <v>       0.83333333       0.00000000       0.44736473 </v>
    <v>       0.83333333       0.33333333       0.44736473 </v>
    <v>       0.83333333       0.66666667       0.44736473 </v>
    <v>       0.25000000       0.41666667       0.50150658 </v>
    <v>       0.25000000       0.48516988       0.50150658 </v>
   </varray>
  </structure>
  <varray name="primitive_index" >
   <v type="int" >        1 </v>
   <v type="int" >        2 </v>
   <v type="int" >        3 </v>
   <v type="int" >        4 </v>
   <v type="int" >        5 </v>
   <v type="int" >        6 </v>
   <v type="int" >        7 </v>
   <v type="int" >        8 </v>
   <v type="int" >        9 </v>
   <v type="int" >       10 </v>
   <v type="int" >       11 </v>
   <v type="int" >       12 </v>
   <v type="int" >       13 </v>
   <v type="int" >       14 </v>
   <v type="int" >       15 </v>
   <v type="int" >       16 </v>
   <v type="int" >       17 </v>
   <v type="int" >       18 </v>
   <v type="int" >       19 </v>
   <v type="int" >       20 </v>
   <v type="int" >       21 </v>
   <v type="int" >       22 </v>
   <v type="int" >       23 </v>
   <v type="int" >       24 </v>
   <v type="int" >       25 </v>
   <v type="int" >       26 </v>
   <v type="int" >       27 </v>
   <v type="int" >       28 </v>
   <v type="int" >       29 </v>
   <v type="int" >       30 </v>
   <v type="int" >       31 </v>
   <v type="int" >       32 </v>
   <v type="int" >       33 </v>
   <v type="int" >       34 </v>
   <v type="int" >       35 </v>
   <v type="int" >       36 </v>
   <v type="int" >       37 </v>
   <v type="int" >       38 </v>
   <v type="int" >       39 </v>
   <v type="int" >       40 </v>
   <v type="int" >       41 </v>
   <v type="int" >       42 </v>
   <v type="int" >       43 </v>
   <v type="int" >       44 </v>
   <v type="int" >       45 </v>
   <v type="int" >       46 </v>
   <v type="int" >       47 </v>
   <v type="int" >       48 </v>
   <v type="int" >       49 </v>
   <v type="int" >       50 </v>
   <v type="int" >       51 </v>
   <v type="int" >       52 </v>
   <v type="int" >       53 </v>
   <v type="int" >       54 </v>
   <v type="int" >       55 </v>
   <v type="int" >       56 </v>
   <v type="int" >       57 </v>
   <v type="int" >       58 </v>
   <v type="int" >       59 </v>
   <v type="int" >       60 </v>
   <v type="int" >       61 </v>
   <v type="int" >       62 </v>
   <v type="int" >       63 </v>
   <v type="int" >       64 </v>
   <v type="int" >       65 </v>
   <v type="int" >       66 </v>
   <v type="int" >       67 </v>
   <v type="int" >       68 </v>
   <v type="int" >       69 </v>
   <v type="int" >       70 </v>
   <v type="int" >       71 </v>
   <v type="int" >       72 </v>
   <v type="int" >       73 </v>
   <v type="int" >       74 </v>
   <v type="int" >       75 </v>
   <v type="int" >       76 </v>
   <v type="int" >       77 </v>
   <v type="int" >       78 </v>
   <v type="int" >       79 </v>
   <v type="int" >       80 </v>
   <v type="int" >       81 </v>
   <v type="int" >       82 </v>
   <v type="int" >       83 </v>
   <v type="int" >       84 </v>
   <v type="int" >       85 </v>
   <v type="int" >       86 </v>
   <v type="int" >       87 </v>
   <v type="int" >       88 </v>
   <v type="int" >       89 </v>
   <v type="int" >       90 </v>
   <v type="int" >       91 </v>
   <v type="int" >       92 </v>
   <v type="int" >       93 </v>
   <v type="int" >       94 </v>
   <v type="int" >       95 </v>
   <v type="int" >       96 </v>
   <v type="int" >       97 </v>
   <v type="int" >       98 </v>
   <v type="int" >       99 </v>
   <v type="int" >      100 </v>
   <v type="int" >      101 </v>
   <v type="int" >      102 </v>
   <v type="int" >      103 </v>
   <v type="int" >      104 </v>
   <v type="int" >      105 </v>
   <v type="int" >      106 </v>
   <v type="int" >      107 </v>
   <v type="int" >      108 </v>
   <v type="int" >      109 </v>
   <v type="int" >      110 </v>
   <v type="int" >      111 </v>
   <v type="int" >      112 </v>
   <v type="int" >      113 </v>
   <v type="int" >      114 </v>
   <v type="int" >      115 </v>
   <v type="int" >      116 </v>
   <v type="int" >      117 </v>
   <v type="int" >      118 </v>
   <v type="int" >      119 </v>
   <v type="int" >      120 </v>
   <v type="int" >      121 </v>
   <v type="int" >      122 </v>
   <v type="int" >      123 </v>
   <v type="int" >      124 </v>
   <v type="int" >      125 </v>
   <v type="int" >      126 </v>
   <v type="int" >      127 </v>
   <v type="int" >      128 </v>
   <v type="int" >      129 </v>
   <v type="int" >      130 </v>
   <v type="int" >      131 </v>
   <v type="int" >      132 </v>
   <v type="int" >      133 </v>
   <v type="int" >      134 </v>
   <v type="int" >      135 </v>
   <v type="int" >      136 </v>
   <v type="int" >      137 </v>
   <v type="int" >      138 </v>
   <v type="int" >      139 </v>
   <v type="int" >      140 </v>
   <v type="int" >      141 </v>
   <v type="int" >      142 </v>
   <v type="int" >      143 </v>
   <v type="int" >      144 </v>
   <v type="int" >      145 </v>
   <v type="int" >      146 </v>
  </varray>
 </primitive_cell>
 <kpoints>
  <generation param="Monkhorst-Pack">
   <v type="int" name="divisions">       3        3        1 </v>
   <v name="usershift">      0.00000000       0.00000000       0.00000000 </v>
   <v name="genvec1">      0.33333333       0.00000000       0.00000000 </v>
   <v name="genvec2">      0.00000000       0.33333333       0.00000000 </v>
   <v name="genvec3">      0.00000000       0.00000000       1.00000000 </v>
   <v name="shift">      0.00000000       0.00000000       0.00000000 </v>
  </generation>
  <varray name="kpointlist" >
   <v>       0.00000000       0.00000000       0.00000000 </v>
   <v>       0.33333333       0.00000000       0.00000000 </v>
   <v>       0.00000000       0.33333333       0.00000000 </v>
   <v>       0.33333333       0.33333333       0.00000000 </v>
   <v>      -0.33333333       0.33333333       0.00000000 </v>
  </varray>
  <varray name="weights" >
   <v>       0.11111111 </v>
   <v>       0.22222222 </v>
   <v>       0.22222222 </v>
   <v>       0.22222222 </v>
   <v>       0.22222222 </v>
  </varray>
 </kpoints>
 <parameters>
  <separator name="general" >
   <i type="string" name="SYSTEM">unknown system</i>
   <i type="logical" name="LCOMPAT"> F  </i>
  </separator>
  <separator name="electronic" >
   <i type="string" name="PREC">normal</i>
   <i name="ENMAX">    400.00000000</i>
   <i name="ENAUG">    586.98000000</i>
   <i name="EDIFF">      0.00020000</i>
   <i type="int" name="IALGO">    38</i>
   <i type="int" name="IWAVPR">    11</i>
   <i type="int" name="NBANDS">  1024</i>
   <i type="int" name="NBANDSLOW">    -1</i>
   <i type="int" name="NBANDSHIGH">    -1</i>
   <i name="NELECT">   1586.00000000</i>
   <i type="int" name="TURBO">     0</i>
   <i type="int" name="IRESTART">     0</i>
   <i type="int" name="NREBOOT">     0</i>
   <i type="int" name="NMIN">     0</i>
   <i name="EREF">      0.00000000</i>
   <separator name="electronic smearing" >
    <i type="int" name="ISMEAR">     1</i>
    <i name="SIGMA">      0.20000000</i>
    <i name="KSPACING">      0.50000000</i>
    <i type="logical" name="KGAMMA"> T  </i>
    <i type="logical" name="KBLOWUP"> T  </i>
   </separator>
   <separator name="electronic projectors" >
    <i type="logical" name="LREAL"> F  </i>
    <v name="ROPT">      0.00000000      0.00000000</v>
    <i type="int" name="LMAXPAW">  -100</i>
    <i type="int" name="LMAXMIX">     2</i>
    <i type="logical" name="NLSPLINE"> F  </i>
   </separator>
   <separator name="electronic startup" >
    <i type="int" name="ISTART">     0</i>
    <i type="int" name="ICHARG">     2</i>
    <i type="int" name="INIWAV">     1</i>
   </separator>
   <separator name="electronic spin" >
    <i type="int" name="ISPIN">     2</i>
    <i type="logical" name="LNONCOLLINEAR"> F  </i>
    <v name="MAGMOM">      1.00000000      1.00000000      1.00000000      1.00000000      1.00000000      1.00000000      1.00000000      1.00000000      1.00000000      1.00000000      1.00000000      1.00000000      1.00000000      1.00000000      1.00000000      1.00000000      1.00000000      1.00000000      1.00000000      1.00000000
      1.00000000      1.00000000      1.00000000      1.00000000      1.00000000      1.00000000      1.00000000      1.00000000      1.00000000      1.00000000      1.00000000      1.00000000      1.00000000      1.00000000      1.00000000      1.00000000      1.00000000      1.00000000      1.00000000      1.00000000
      1.00000000      1.00000000      1.00000000      1.00000000      1.00000000      1.00000000      1.00000000      1.00000000      1.00000000      1.00000000      1.00000000      1.00000000      1.00000000      1.00000000      1.00000000      1.00000000      1.00000000      1.00000000      1.00000000      1.00000000
      1.00000000      1.00000000      1.00000000      1.00000000      1.00000000      1.00000000      1.00000000      1.00000000      1.00000000      1.00000000      1.00000000      1.00000000      1.00000000      1.00000000      1.00000000      1.00000000      1.00000000      1.00000000      1.00000000      1.00000000
      1.00000000      1.00000000      1.00000000      1.00000000      1.00000000      1.00000000      1.00000000      1.00000000      1.00000000      1.00000000      1.00000000      1.00000000      1.00000000      1.00000000      1.00000000      1.00000000      1.00000000      1.00000000      1.00000000      1.00000000
      1.00000000      1.00000000      1.00000000      1.00000000      1.00000000      1.00000000      1.00000000      1.00000000      1.00000000      1.00000000      1.00000000      1.00000000      1.00000000      1.00000000      1.00000000      1.00000000      1.00000000      1.00000000      1.00000000      1.00000000
      1.00000000      1.00000000      1.00000000      1.00000000      1.00000000      1.00000000      1.00000000      1.00000000      1.00000000      1.00000000      1.00000000      1.00000000      1.00000000      1.00000000      1.00000000      1.00000000      1.00000000      1.00000000      1.00000000      1.00000000
      1.00000000      1.00000000      1.00000000      1.00000000      1.00000000      1.00000000</v>
    <i name="NUPDOWN">     -1.00000000</i>
    <i type="logical" name="LSORBIT"> F  </i>
    <v name="SAXIS">      0.00000000      0.00000000      1.00000000</v>
    <i type="logical" name="LSPIRAL"> F  </i>
    <v name="QSPIRAL">      0.00000000      0.00000000      0.00000000</v>
    <i type="logical" name="LZEROZ"> F  </i>
   </separator>
   <separator name="electronic exchange-correlation" >
    <i type="logical" name="LASPH"> F  </i>
    <i type="logical" name="LMETAGGA"> F  </i>
   </separator>
   <separator name="electronic convergence" >
    <i type="int" name="NELM">    60</i>
    <i type="int" name="NELMDL">    -5</i>
    <i type="int" name="NELMIN">     2</i>
    <i name="ENINI">    400.00000000</i>
    <separator name="electronic convergence detail" >
     <i type="logical" name="LDIAG"> T  </i>
     <i type="logical" name="LSUBROT"> F  </i>
     <i name="WEIMIN">      0.00100000</i>
     <i name="EBREAK">      0.00000005</i>
     <i name="DEPER">      0.30000000</i>
     <i type="int" name="NRMM">     4</i>
     <i name="TIME">      0.40000000</i>
    </separator>
   </separator>
   <separator name="electronic mixer" >
    <i name="AMIX">      0.40000000</i>
    <i name="BMIX">      1.00000000</i>
    <i name="AMIN">      0.10000000</i>
    <i name="AMIX_MAG">      1.60000000</i>
    <i name="BMIX_MAG">      1.00000000</i>
    <separator name="electronic mixer details" >
     <i type="int" name="IMIX">     4</i>
     <i type="logical" name="MIXFIRST"> F  </i>
     <i type="int" name="MAXMIX">   -45</i>
     <i name="WC">    100.00000000</i>
     <i type="int" name="INIMIX">     1</i>
     <i type="int" name="MIXPRE">     1</i>
     <i type="int" name="MREMOVE">     5</i>
    </separator>
   </separator>
   <separator name="electronic dipolcorrection" >
    <i type="logical" name="LDIPOL"> F  </i>
    <i type="logical" name="LMONO"> F  </i>
    <i type="int" name="IDIPOL">     0</i>
    <i name="EPSILON">      1.00000000</i>
    <v name="DIPOL">   -100.00000000   -100.00000000   -100.00000000</v>
    <i name="EFIELD">      0.00000000</i>
   </separator>
  </separator>
  <separator name="grids" >
   <i type="int" name="NGX">    54</i>
   <i type="int" name="NGY">    54</i>
   <i type="int" name="NGZ">   140</i>
   <i type="int" name="NGXF">   108</i>
   <i type="int" name="NGYF">   108</i>
   <i type="int" name="NGZF">   280</i>
   <i type="logical" name="ADDGRID"> F  </i>
  </separator>
  <separator name="ionic" >
   <i type="int" name="NSW">   800</i>
   <i type="int" name="IBRION">     2</i>
   <i type="int" name="MDALGO">     0</i>
   <i type="int" name="ISIF">     2</i>
   <i name="PSTRESS">      0.00000000</i>
   <i name="EDIFFG">     -0.03000000</i>
   <i type="int" name="NFREE">     1</i>
   <i name="POTIM">      0.50000000</i>
   <i name="SMASS">     -3.00000000</i>
   <i name="SCALEE">      1.00000000</i>
  </separator>
  <separator name="ionic md" >
   <i name="TEBEG">      0.00010000</i>
   <i name="TEEND">      0.00010000</i>
   <i type="int" name="NBLOCK">     1</i>
   <i type="int" name="KBLOCK">   800</i>
   <i type="int" name="NPACO">   256</i>
   <i name="APACO">     10.00000000</i>
  </separator>
  <separator name="symmetry" >
   <i type="int" name="ISYM">     1</i>
   <i name="SYMPREC">      0.00001000</i>
  </separator>
  <separator name="dos" >
   <i type="int" name="LORBIT">     0</i>
   <v name="RWIGS">     -1.00000000     -1.00000000</v>
   <i type="int" name="NEDOS">   301</i>
   <i name="EMIN">     10.00000000</i>
   <i name="EMAX">    -10.00000000</i>
   <i name="EFERMI">      0.00000000</i>
  </separator>
  <separator name="writing" >
   <i type="int" name="NWRITE">     2</i>
   <i type="logical" name="LWAVE"> F  </i>
   <i type="logical" name="LDOWNSAMPLE"> F  </i>
   <i type="logical" name="LCHARG"> F  </i>
   <i type="logical" name="LPARD"> F  </i>
   <i type="logical" name="LVTOT"> F  </i>
   <i type="logical" name="LVHAR"> F  </i>
   <i type="logical" name="LELF"> F  </i>
   <i type="logical" name="LOPTICS"> F  </i>
   <v name="STM">      0.00000000      0.00000000      0.00000000      0.00000000      0.00000000      0.00000000      0.00000000</v>
  </separator>
  <separator name="performance" >
   <i type="int" name="NPAR">     4</i>
   <i type="int" name="NSIM">     4</i>
   <i type="int" name="NBLK">    -1</i>
   <i type="logical" name="LPLANE"> T  </i>
   <i type="logical" name="LSCALAPACK"> T  </i>
   <i type="logical" name="LSCAAWARE"> F  </i>
   <i type="logical" name="LSCALU"> F  </i>
   <i type="logical" name="LASYNC"> F  </i>
   <i type="logical" name="LORBITALREAL"> F  </i>
  </separator>
  <separator name="miscellaneous" >
   <i type="int" name="IDIOT">     3</i>
   <i type="int" name="PHON_NSTRUCT">    -1</i>
   <i type="logical" name="LMUSIC"> F  </i>
   <v name="POMASS">     63.54600000      1.00000000</v>
   <v name="DARWINR">      0.00000000      0.00000000</v>
   <v name="DARWINV">      1.00000000      1.00000000</v>
   <i type="logical" name="LCORR"> T  </i>
  </separator>
  <i type="logical" name="GGA_COMPAT"> T  </i>
  <i type="logical" name="LBERRY"> F  </i>
  <i type="int" name="ICORELEVEL">     0</i>
  <i type="logical" name="LDAU"> F  </i>
  <i type="int" name="I_CONSTRAINED_M">     0</i>
  <separator name="electronic exchange-correlation" >
   <i type="string" name="GGA">PE</i>
   <i type="int" name="VOSKOWN">     0</i>
   <i type="logical" name="LHFCALC"> F  </i>
   <i type="string" name="PRECFOCK"></i>
   <i type="logical" name="LSYMGRAD"> F  </i>
   <i type="logical" name="LHFONE"> F  </i>
   <i type="logical" name="LRHFCALC"> F  </i>
   <i type="logical" name="LTHOMAS"> F  </i>
   <i type="logical" name="LMODELHF"> F  </i>
   <i type="logical" name="LFOCKACE"> F  </i>
   <i name="ENCUT4O">     -1.00000000</i>
   <i type="int" name="EXXOEP">     0</i>
   <i type="int" name="FOURORBIT">     0</i>
   <i name="AEXX">      0.00000000</i>
   <i name="HFALPHA">      0.00000000</i>
   <i name="MCALPHA">      0.00000000</i>
   <i name="ALDAX">      1.00000000</i>
   <i name="AGGAX">      1.00000000</i>
   <i name="ALDAC">      1.00000000</i>
   <i name="AGGAC">      1.00000000</i>
   <i type="int" name="NKREDX">     1</i>
   <i type="int" name="NKREDY">     1</i>
   <i type="int" name="NKREDZ">     1</i>
   <i type="logical" name="SHIFTRED"> F  </i>
   <i type="logical" name="ODDONLY"> F  </i>
   <i type="logical" name="EVENONLY"> F  </i>
   <i type="int" name="LMAXFOCK">     0</i>
   <i type="int" name="NMAXFOCKAE">     0</i>
   <i type="logical" name="LFOCKAEDFT"> F  </i>
   <i name="HFSCREEN">      0.00000000</i>
   <i name="HFSCREENC">      0.00000000</i>
   <i type="int" name="NBANDSGWLOW">     0</i>
  </separator>
  <separator name="vdW DFT" >
   <i type="logical" name="LUSE_VDW"> F  </i>
   <i name="Zab_VDW">     -0.84910000</i>
   <i name="PARAM1">      0.12340000</i>
   <i name="PARAM2">      1.00000000</i>
   <i name="PARAM3">      0.00000000</i>
  </separator>
  <separator name="model GW" >
   <i type="int" name="MODEL_GW">     0</i>
   <i name="MODEL_EPS0">     13.50244245</i>
   <i name="MODEL_ALPHA">      1.00000000</i>
  </separator>
  <separator name="linear response parameters" >
   <i type="logical" name="LEPSILON"> F  </i>
   <i type="logical" name="LRPA"> F  </i>
   <i type="logical" name="LNABLA"> F  </i>
   <i type="logical" name="LVEL"> F  </i>
   <i name="CSHIFT">      0.10000000</i>
   <i name="OMEGAMAX">     -1.00000000</i>
   <i name="DEG_THRESHOLD">      0.00200000</i>
   <i name="RTIME">     -0.10000000</i>
   <i name="WPLASMAI">      0.00000000</i>
   <v name="DFIELD">      0.00000000      0.00000000      0.00000000</v>
   <v name="WPLASMA">      0.00000000      0.00000000      0.00000000      0.00000000      0.00000000      0.00000000      0.00000000      0.00000000      0.00000000</v>
  </separator>
  <separator name="orbital magnetization" >
   <i type="logical" name="NUCIND"> F  </i>
   <v name="MAGPOS">      0.00000000      0.00000000      0.00000000</v>
   <i type="logical" name="LNICSALL"> T  </i>
   <i type="logical" name="ORBITALMAG"> F  </i>
   <i type="logical" name="LMAGBLOCH"> F  </i>
   <i type="logical" name="LCHIMAG"> F  </i>
   <i type="logical" name="LGAUGE"> T  </i>
   <i type="int" name="MAGATOM">     0</i>
   <v name="MAGDIPOL">      0.00000000      0.00000000      0.00000000</v>
   <v name="AVECCONST">      0.00000000      0.00000000      0.00000000</v>
  </separator>
  <separator name="response functions" >
   <i type="logical" name="LFINITE_TEMPERATURE"> F  </i>
   <i type="logical" name="LADDER"> F  </i>
   <i type="logical" name="LRPAFORCE"> F  </i>
   <i type="logical" name="LFXC"> F  </i>
   <i type="logical" name="LHARTREE"> T  </i>
   <i type="int" name="IBSE">     0</i>
   <v type="int" name="KPOINT">    -1     0     0     0</v>
   <i type="logical" name="LTCTC"> F  </i>
   <i type="logical" name="LTCTE"> F  </i>
   <i type="logical" name="LTETE"> F  </i>
   <i type="logical" name="LTRIPLET"> F  </i>
   <i type="logical" name="LFXCEPS"> F  </i>
   <i type="logical" name="LFXHEG"> F  </i>
   <i type="int" name="NATURALO">     2</i>
   <i type="logical" name="LHOLEGF"> F  </i>
   <i type="logical" name="L2ORDER"> F  </i>
   <i type="logical" name="LDMP1"> F  </i>
   <i type="logical" name="LMP2LT"> F  </i>
   <i type="logical" name="LSMP2LT"> F  </i>
   <i type="logical" name="LGWLF"> F  </i>
   <i name="ENCUTGW">     -2.00000000</i>
   <i name="ENCUTGWSOFT">     -2.00000000</i>
   <i name="ENCUTLF">     -1.00000000</i>
   <i type="logical" name="LESF_SPLINES"> F  </i>
   <i type="int" name="LMAXMP2">    -1</i>
   <i name="SCISSOR">      0.00000000</i>
   <i type="int" name="NOMEGA">     0</i>
   <i type="int" name="NOMEGAR">     0</i>
   <i type="int" name="NBANDSGW">    -1</i>
   <i type="int" name="NBANDSO">    -1</i>
   <i type="int" name="NBANDSV">    -1</i>
   <i type="int" name="NELMGW">     1</i>
   <i type="int" name="NELMHF">     1</i>
   <i type="int" name="DIM">     3</i>
   <i type="int" name="IESPILON">     4</i>
   <i type="int" name="ANTIRES">     0</i>
   <i name="OMEGAMAX">    -30.00000000</i>
   <i name="OMEGAMIN">    -30.00000000</i>
   <i name="OMEGATL">   -200.00000000</i>
   <i type="int" name="OMEGAGRID">     0</i>
   <i name="CSHIFT">     -0.10000000</i>
   <i type="logical" name="LSELFENERGY"> F  </i>
   <i type="logical" name="LSPECTRAL"> F  </i>
   <i type="logical" name="LSPECTRALGW"> F  </i>
   <i type="logical" name="LSINGLES"> F  </i>
   <i type="logical" name="LFERMIGW"> F  </i>
   <i type="logical" name="ODDONLYGW"> F  </i>
   <i type="logical" name="EVENONLYGW"> F  </i>
   <i type="int" name="NKREDLFX">     1</i>
   <i type="int" name="NKREDLFY">     1</i>
   <i type="int" name="NKREDLFZ">     1</i>
   <i type="int" name="MAXMEM">  2800</i>
   <i type="int" name="TELESCOPE">     0</i>
   <i type="int" name="NTAUPAR">    -1</i>
   <i type="int" name="NOMEGAPAR">    -1</i>
   <i name="DAMP_NEWTON">      0.80000001</i>
   <i name="LAMBDA">      1.00000000</i>
  </separator>
  <separator name="External order field" >
   <i name="OFIELD_KAPPA">      0.00000000</i>
   <v name="OFIELD_K">      0.00000000      0.00000000      0.00000000</v>
   <i name="OFIELD_Q6_NEAR">      0.00000000</i>
   <i name="OFIELD_Q6_FAR">      0.00000000</i>
   <i name="OFIELD_A">      0.00000000</i>
  </separator>
  <separator name="optional k-points parameters" >
   <i type="int" name="KPOINTS_OPT_MODE">     1</i>
   <i type="logical" name="LKPOINTS_OPT"> F  </i>
  </separator>
 </parameters>
 <atominfo>
  <atoms>     146 </atoms>
  <types>       2 </types>
  <array name="atoms" >
   <dimension dim="1">ion</dimension>
   <field type="string">element</field>
   <field type="int">atomtype</field>
   <set>
    <rc><c>Cu</c><c>   1</c></rc>
    <rc><c>Cu</c><c>   1</c></rc>
    <rc><c>Cu</c><c>   1</c></rc>
    <rc><c>Cu</c><c>   1</c></rc>
    <rc><c>Cu</c><c>   1</c></rc>
    <rc><c>Cu</c><c>   1</c></rc>
    <rc><c>Cu</c><c>   1</c></rc>
    <rc><c>Cu</c><c>   1</c></rc>
    <rc><c>Cu</c><c>   1</c></rc>
    <rc><c>Cu</c><c>   1</c></rc>
    <rc><c>Cu</c><c>   1</c></rc>
    <rc><c>Cu</c><c>   1</c></rc>
    <rc><c>Cu</c><c>   1</c></rc>
    <rc><c>Cu</c><c>   1</c></rc>
    <rc><c>Cu</c><c>   1</c></rc>
    <rc><c>Cu</c><c>   1</c></rc>
    <rc><c>Cu</c><c>   1</c></rc>
    <rc><c>Cu</c><c>   1</c></rc>
    <rc><c>Cu</c><c>   1</c></rc>
    <rc><c>Cu</c><c>   1</c></rc>
    <rc><c>Cu</c><c>   1</c></rc>
    <rc><c>Cu</c><c>   1</c></rc>
    <rc><c>Cu</c><c>   1</c></rc>
    <rc><c>Cu</c><c>   1</c></rc>
    <rc><c>Cu</c><c>   1</c></rc>
    <rc><c>Cu</c><c>   1</c></rc>
    <rc><c>Cu</c><c>   1</c></rc>
    <rc><c>Cu</c><c>   1</c></rc>
    <rc><c>Cu</c><c>   1</c></rc>
    <rc><c>Cu</c><c>   1</c></rc>
    <rc><c>Cu</c><c>   1</c></rc>
    <rc><c>Cu</c><c>   1</c></rc>
    <rc><c>Cu</c><c>   1</c></rc>
    <rc><c>Cu</c><c>   1</c></rc>
    <rc><c>Cu</c><c>   1</c></rc>
    <rc><c>Cu</c><c>   1</c></rc>
    <rc><c>Cu</c><c>   1</c></rc>
    <rc><c>Cu</c><c>   1</c></rc>
    <rc><c>Cu</c><c>   1</c></rc>
    <rc><c>Cu</c><c>   1</c></rc>
    <rc><c>Cu</c><c>   1</c></rc>
    <rc><c>Cu</c><c>   1</c></rc>
    <rc><c>Cu</c><c>   1</c></rc>
    <rc><c>Cu</c><c>   1</c></rc>
    <rc><c>Cu</c><c>   1</c></rc>
    <rc><c>Cu</c><c>   1</c></rc>
    <rc><c>Cu</c><c>   1</c></rc>
    <rc><c>Cu</c><c>   1</c></rc>
    <rc><c>Cu</c><c>   1</c></rc>
    <rc><c>Cu</c><c>   1</c></rc>
    <rc><c>Cu</c><c>   1</c></rc>
    <rc><c>Cu</c><c>   1</c></rc>
    <rc><c>Cu</c><c>   1</c></rc>
    <rc><c>Cu</c><c>   1</c></rc>
    <rc><c>Cu</c><c>   1</c></rc>
    <rc><c>Cu</c><c>   1</c></rc>
    <rc><c>Cu</c><c>   1</c></rc>
    <rc><c>Cu</c><c>   1</c></rc>
    <rc><c>Cu</c><c>   1</c></rc>
    <rc><c>Cu</c><c>   1</c></rc>
    <rc><c>Cu</c><c>   1</c></rc>
    <rc><c>Cu</c><c>   1</c></rc>
    <rc><c>Cu</c><c>   1</c></rc>
    <rc><c>Cu</c><c>   1</c></rc>
    <rc><c>Cu</c><c>   1</c></rc>
    <rc><c>Cu</c><c>   1</c></rc>
    <rc><c>Cu</c><c>   1</c></rc>
    <rc><c>Cu</c><c>   1</c></rc>
    <rc><c>Cu</c><c>   1</c></rc>
    <rc><c>Cu</c><c>   1</c></rc>
    <rc><c>Cu</c><c>   1</c></rc>
    <rc><c>Cu</c><c>   1</c></rc>
    <rc><c>Cu</c><c>   1</c></rc>
    <rc><c>Cu</c><c>   1</c></rc>
    <rc><c>Cu</c><c>   1</c></rc>
    <rc><c>Cu</c><c>   1</c></rc>
    <rc><c>Cu</c><c>   1</c></rc>
    <rc><c>Cu</c><c>   1</c></rc>
    <rc><c>Cu</c><c>   1</c></rc>
    <rc><c>Cu</c><c>   1</c></rc>
    <rc><c>Cu</c><c>   1</c></rc>
    <rc><c>Cu</c><c>   1</c></rc>
    <rc><c>Cu</c><c>   1</c></rc>
    <rc><c>Cu</c><c>   1</c></rc>
    <rc><c>Cu</c><c>   1</c></rc>
    <rc><c>Cu</c><c>   1</c></rc>
    <rc><c>Cu</c><c>   1</c></rc>
    <rc><c>Cu</c><c>   1</c></rc>
    <rc><c>Cu</c><c>   1</c></rc>
    <rc><c>Cu</c><c>   1</c></rc>
    <rc><c>Cu</c><c>   1</c></rc>
    <rc><c>Cu</c><c>   1</c></rc>
    <rc><c>Cu</c><c>   1</c></rc>
    <rc><c>Cu</c><c>   1</c></rc>
    <rc><c>Cu</c><c>   1</c></rc>
    <rc><c>Cu</c><c>   1</c></rc>
    <rc><c>Cu</c><c>   1</c></rc>
    <rc><c>Cu</c><c>   1</c></rc>
    <rc><c>Cu</c><c>   1</c></rc>
    <rc><c>Cu</c><c>   1</c></rc>
    <rc><c>Cu</c><c>   1</c></rc>
    <rc><c>Cu</c><c>   1</c></rc>
    <rc><c>Cu</c><c>   1</c></rc>
    <rc><c>Cu</c><c>   1</c></rc>
    <rc><c>Cu</c><c>   1</c></rc>
    <rc><c>Cu</c><c>   1</c></rc>
    <rc><c>Cu</c><c>   1</c></rc>
    <rc><c>Cu</c><c>   1</c></rc>
    <rc><c>Cu</c><c>   1</c></rc>
    <rc><c>Cu</c><c>   1</c></rc>
    <rc><c>Cu</c><c>   1</c></rc>
    <rc><c>Cu</c><c>   1</c></rc>
    <rc><c>Cu</c><c>   1</c></rc>
    <rc><c>Cu</c><c>   1</c></rc>
    <rc><c>Cu</c><c>   1</c></rc>
    <rc><c>Cu</c><c>   1</c></rc>
    <rc><c>Cu</c><c>   1</c></rc>
    <rc><c>Cu</c><c>   1</c></rc>
    <rc><c>Cu</c><c>   1</c></rc>
    <rc><c>Cu</c><c>   1</c></rc>
    <rc><c>Cu</c><c>   1</c></rc>
    <rc><c>Cu</c><c>   1</c></rc>
    <rc><c>Cu</c><c>   1</c></rc>
    <rc><c>Cu</c><c>   1</c></rc>
    <rc><c>Cu</c><c>   1</c></rc>
    <rc><c>Cu</c><c>   1</c></rc>
    <rc><c>Cu</c><c>   1</c></rc>
    <rc><c>Cu</c><c>   1</c></rc>
    <rc><c>Cu</c><c>   1</c></rc>
    <rc><c>Cu</c><c>   1</c></rc>
    <rc><c>Cu</c><c>   1</c></rc>
    <rc><c>Cu</c><c>   1</c></rc>
    <rc><c>Cu</c><c>   1</c></rc>
    <rc><c>Cu</c><c>   1</c></rc>
    <rc><c>Cu</c><c>   1</c></rc>
    <rc><c>Cu</c><c>   1</c></rc>
    <rc><c>Cu</c><c>   1</c></rc>
    <rc><c>Cu</c><c>   1</c></rc>
    <rc><c>Cu</c><c>   1</c></rc>
    <rc><c>Cu</c><c>   1</c></rc>
    <rc><c>Cu</c><c>   1</c></rc>
    <rc><c>Cu</c><c>   1</c></rc>
    <rc><c>Cu</c><c>   1</c></rc>
    <rc><c>Cu</c><c>   1</c></rc>
    <rc><c>H </c><c>   2</c></rc>
    <rc><c>H </c><c>   2</c></rc>
   </set>
  </array>
  <array name="atomtypes" >
   <dimension dim="1">type</dimension>
   <field type="int">atomspertype</field>
   <field type="string">element</field>
   <field>mass</field>
   <field>valence</field>
   <field type="string">pseudopotential</field>
   <set>
    <rc><c> 144</c><c>Cu</c><c>     63.54600000</c><c>     11.00000000</c><c>  PAW_PBE Cu 22Jun2005                  </c></rc>
    <rc><c>   2</c><c>H </c><c>      1.00000000</c><c>      1.00000000</c><c>  PAW_PBE H 15Jun2001                   </c></rc>
   </set>
  </array>
 </atominfo>
 <structure name="initialpos" >
  <crystal>
   <varray name="basis" >
    <v>      10.89000034       0.00000000       0.00000000 </v>
    <v>       0.00000000      10.89000034       0.00000000 </v>
    <v>       0.00000000       0.00000000      27.70499992 </v>
   </varray>
   <i name="volume">   3285.59432860 </i>
   <varray name="rec_basis" >
    <v>       0.09182736       0.00000000       0.00000000 </v>
    <v>       0.00000000       0.09182736       0.00000000 </v>
    <v>       0.00000000       0.00000000       0.03609457 </v>
   </varray>
  </crystal>
  <varray name="positions" >
   <v>       0.00000000       0.00000000       0.00000000 </v>
   <v>       0.00000000       0.33333333       0.00000000 </v>
   <v>       0.00000000       0.66666667       0.00000000 </v>
   <v>       0.33333333       0.00000000       0.00000000 </v>
   <v>       0.33333333       0.33333333       0.00000000 </v>
   <v>       0.33333333       0.66666667       0.00000000 </v>
   <v>       0.66666667       0.00000000       0.00000000 </v>
   <v>       0.66666667       0.33333333       0.00000000 </v>
   <v>       0.66666667       0.66666667       0.00000000 </v>
   <v>       0.16666667       0.16666667       0.00000000 </v>
   <v>       0.16666667       0.50000000       0.00000000 </v>
   <v>       0.16666667       0.83333333       0.00000000 </v>
   <v>       0.50000000       0.16666667       0.00000000 </v>
   <v>       0.50000000       0.50000000       0.00000000 </v>
   <v>       0.50000000       0.83333333       0.00000000 </v>
   <v>       0.83333333       0.16666667       0.00000000 </v>
   <v>       0.83333333       0.50000000       0.00000000 </v>
   <v>       0.83333333       0.83333333       0.00000000 </v>
   <v>       0.00000000       0.16666667       0.06551164 </v>
   <v>       0.00000000       0.50000000       0.06551164 </v>
   <v>       0.00000000       0.83333333       0.06551164 </v>
   <v>       0.33333333       0.16666667       0.06551164 </v>
   <v>       0.33333333       0.50000000       0.06551164 </v>
   <v>       0.33333333       0.83333333       0.06551164 </v>
   <v>       0.66666667       0.16666667       0.06551164 </v>
   <v>       0.66666667       0.50000000       0.06551164 </v>
   <v>       0.66666667       0.83333333       0.06551164 </v>
   <v>       0.16666667       0.00000000       0.06551164 </v>
   <v>       0.16666667       0.33333333       0.06551164 </v>
   <v>       0.16666667       0.66666667       0.06551164 </v>
   <v>       0.50000000       0.00000000       0.06551164 </v>
   <v>       0.50000000       0.33333333       0.06551164 </v>
   <v>       0.50000000       0.66666667       0.06551164 </v>
   <v>       0.83333333       0.00000000       0.06551164 </v>
   <v>       0.83333333       0.33333333       0.06551164 </v>
   <v>       0.83333333       0.66666667       0.06551164 </v>
   <v>       0.00000000       0.00000000       0.13119553 </v>
   <v>       0.00000000       0.33333333       0.13119553 </v>
   <v>       0.00000000       0.66666667       0.13119553 </v>
   <v>       0.33333333       0.00000000       0.13119553 </v>
   <v>       0.33333333       0.33333333       0.13119553 </v>
   <v>       0.33333333       0.66666667       0.13119553 </v>
   <v>       0.66666667       0.00000000       0.13119553 </v>
   <v>       0.66666667       0.33333333       0.13119553 </v>
   <v>       0.66666667       0.66666667       0.13119553 </v>
   <v>       0.16666667       0.16666667       0.13119553 </v>
   <v>       0.16666667       0.50000000       0.13119553 </v>
   <v>       0.16666667       0.83333333       0.13119553 </v>
   <v>       0.50000000       0.16666667       0.13119553 </v>
   <v>       0.50000000       0.50000000       0.13119553 </v>
   <v>       0.50000000       0.83333333       0.13119553 </v>
   <v>       0.83333333       0.16666667       0.13119553 </v>
   <v>       0.83333333       0.50000000       0.13119553 </v>
   <v>       0.83333333       0.83333333       0.13119553 </v>
   <v>       0.00000000       0.16666667       0.19620680 </v>
   <v>       0.00000000       0.50000000       0.19620680 </v>
   <v>       0.00000000       0.83333333       0.19620680 </v>
   <v>       0.33333333       0.16666667       0.19620680 </v>
   <v>       0.33333333       0.50000000       0.19620680 </v>
   <v>       0.33333333       0.83333333       0.19620680 </v>
   <v>       0.66666667       0.16666667       0.19620680 </v>
   <v>       0.66666667       0.50000000       0.19620680 </v>
   <v>       0.66666667       0.83333333       0.19620680 </v>
   <v>       0.16666667       0.00000000       0.19620680 </v>
   <v>       0.16666667       0.33333333       0.19620680 </v>
   <v>       0.16666667       0.66666667       0.19620680 </v>
   <v>       0.50000000       0.00000000       0.19620680 </v>
   <v>       0.50000000       0.33333333       0.19620680 </v>
   <v>       0.50000000       0.66666667       0.19620680 </v>
   <v>       0.83333333       0.00000000       0.19620680 </v>
   <v>       0.83333333       0.33333333       0.19620680 </v>
   <v>       0.83333333       0.66666667       0.19620680 </v>
   <v>       0.00000000       0.00000000       0.25873860 </v>
   <v>       0.00000000       0.33333333       0.25873860 </v>
   <v>       0.00000000       0.66666667       0.25873860 </v>
   <v>       0.33333333       0.00000000       0.25873860 </v>
   <v>       0.33333333       0.33333333       0.25873860 </v>
   <v>       0.33333333       0.66666667       0.25873860 </v>
   <v>       0.66666667       0.00000000       0.25873860 </v>
   <v>       0.66666667       0.33333333       0.25873860 </v>
   <v>       0.66666667       0.66666667       0.25873860 </v>
   <v>       0.16666667       0.16666667       0.25873860 </v>
   <v>       0.16666667       0.50000000       0.25873860 </v>
   <v>       0.16666667       0.83333333       0.25873860 </v>
   <v>       0.50000000       0.16666667       0.25873860 </v>
   <v>       0.50000000       0.50000000       0.25873860 </v>
   <v>       0.50000000       0.83333333       0.25873860 </v>
   <v>       0.83333333       0.16666667       0.25873860 </v>
   <v>       0.83333333       0.50000000       0.25873860 </v>
   <v>       0.83333333       0.83333333       0.25873860 </v>
   <v>       0.00000000       0.16666667       0.32119954 </v>
   <v>       0.00000000       0.50000000       0.32119954 </v>
   <v>       0.00000000       0.83333333       0.32119954 </v>
   <v>       0.33333333       0.16666667       0.32119954 </v>
   <v>       0.33333333       0.50000000       0.32119954 </v>
   <v>       0.33333333       0.83333333       0.32119954 </v>
   <v>       0.66666667       0.16666667       0.32119954 </v>
   <v>       0.66666667       0.50000000       0.32119954 </v>
   <v>       0.66666667       0.83333333       0.32119954 </v>
   <v>       0.16666667       0.00000000       0.32119954 </v>
   <v>       0.16666667       0.33333333       0.32119954 </v>
   <v>       0.16666667       0.66666667       0.32119954 </v>
   <v>       0.50000000       0.00000000       0.32119954 </v>
   <v>       0.50000000       0.33333333       0.32119954 </v>
   <v>       0.50000000       0.66666667       0.32119954 </v>
   <v>       0.83333333       0.00000000       0.32119954 </v>
   <v>       0.83333333       0.33333333       0.32119954 </v>
   <v>       0.83333333       0.66666667       0.32119954 </v>
   <v>       0.00000000       0.00000000       0.38476372 </v>
   <v>       0.00000000       0.33333333       0.38476372 </v>
   <v>       0.00000000       0.66666667       0.38476372 </v>
   <v>       0.33333333       0.00000000       0.38476372 </v>
   <v>       0.33333333       0.33333333       0.38476372 </v>
   <v>       0.33333333       0.66666667       0.38476372 </v>
   <v>       0.66666667       0.00000000       0.38476372 </v>
   <v>       0.66666667       0.33333333       0.38476372 </v>
   <v>       0.66666667       0.66666667       0.38476372 </v>
   <v>       0.16666667       0.16666667       0.38476372 </v>
   <v>       0.16666667       0.50000000       0.38476372 </v>
   <v>       0.16666667       0.83333333       0.38476372 </v>
   <v>       0.50000000       0.16666667       0.38476372 </v>
   <v>       0.50000000       0.50000000       0.38476372 </v>
   <v>       0.50000000       0.83333333       0.38476372 </v>
   <v>       0.83333333       0.16666667       0.38476372 </v>
   <v>       0.83333333       0.50000000       0.38476372 </v>
   <v>       0.83333333       0.83333333       0.38476372 </v>
   <v>       0.00000000       0.16666667       0.44736473 </v>
   <v>       0.00000000       0.50000000       0.44736473 </v>
   <v>       0.00000000       0.83333333       0.44736473 </v>
   <v>       0.33333333       0.16666667       0.44736473 </v>
   <v>       0.33333333       0.50000000       0.44736473 </v>
   <v>       0.33333333       0.83333333       0.44736473 </v>
   <v>       0.66666667       0.16666667       0.44736473 </v>
   <v>       0.66666667       0.50000000       0.44736473 </v>
   <v>       0.66666667       0.83333333       0.44736473 </v>
   <v>       0.16666667       0.00000000       0.44736473 </v>
   <v>       0.16666667       0.33333333       0.44736473 </v>
   <v>       0.16666667       0.66666667       0.44736473 </v>
   <v>       0.50000000       0.00000000       0.44736473 </v>
   <v>       0.50000000       0.33333333       0.44736473 </v>
   <v>       0.50000000       0.66666667       0.44736473 </v>
   <v>       0.83333333       0.00000000       0.44736473 </v>
   <v>       0.83333333       0.33333333       0.44736473 </v>
   <v>       0.83333333       0.66666667       0.44736473 </v>
   <v>       0.25000000       0.41666667       0.50150658 </v>
   <v>       0.25000000       0.48516988       0.50150658 </v>
  </varray>
  <varray name="selective"  type="logical" >
   <v type="logical" >  F  F  F </v>
   <v type="logical" >  F  F  F </v>
   <v type="logical" >  F  F  F </v>
   <v type="logical" >  F  F  F </v>
   <v type="logical" >  F  F  F </v>
   <v type="logical" >  F  F  F </v>
   <v type="logical" >  F  F  F </v>
   <v type="logical" >  F  F  F </v>
   <v type="logical" >  F  F  F </v>
   <v type="logical" >  F  F  F </v>
   <v type="logical" >  F  F  F </v>
   <v type="logical" >  F  F  F </v>
   <v type="logical" >  F  F  F </v>
   <v type="logical" >  F  F  F </v>
   <v type="logical" >  F  F  F </v>
   <v type="logical" >  F  F  F </v>
   <v type="logical" >  F  F  F </v>
   <v type="logical" >  F  F  F </v>
   <v type="logical" >  F  F  F </v>
   <v type="logical" >  F  F  F </v>
   <v type="logical" >  F  F  F </v>
   <v type="logical" >  F  F  F </v>
   <v type="logical" >  F  F  F </v>
   <v type="logical" >  F  F  F </v>
   <v type="logical" >  F  F  F </v>
   <v type="logical" >  F  F  F </v>
   <v type="logical" >  F  F  F </v>
   <v type="logical" >  F  F  F </v>
   <v type="logical" >  F  F  F </v>
   <v type="logical" >  F  F  F </v>
   <v type="logical" >  F  F  F </v>
   <v type="logical" >  F  F  F </v>
   <v type="logical" >  F  F  F </v>
   <v type="logical" >  F  F  F </v>
   <v type="logical" >  F  F  F </v>
   <v type="logical" >  F  F  F </v>
   <v type="logical" >  F  F  F </v>
   <v type="logical" >  F  F  F </v>
   <v type="logical" >  F  F  F </v>
   <v type="logical" >  F  F  F </v>
   <v type="logical" >  F  F  F </v>
   <v type="logical" >  F  F  F </v>
   <v type="logical" >  F  F  F </v>
   <v type="logical" >  F  F  F </v>
   <v type="logical" >  F  F  F </v>
   <v type="logical" >  F  F  F </v>
   <v type="logical" >  F  F  F </v>
   <v type="logical" >  F  F  F </v>
   <v type="logical" >  F  F  F </v>
   <v type="logical" >  F  F  F </v>
   <v type="logical" >  F  F  F </v>
   <v type="logical" >  F  F  F </v>
   <v type="logical" >  F  F  F </v>
   <v type="logical" >  F  F  F </v>
   <v type="logical" >  T  T  T </v>
   <v type="logical" >  T  T  T </v>
   <v type="logical" >  T  T  T </v>
   <v type="logical" >  T  T  T </v>
   <v type="logical" >  T  T  T </v>
   <v type="logical" >  T  T  T </v>
   <v type="logical" >  T  T  T </v>
   <v type="logical" >  T  T  T </v>
   <v type="logical" >  T  T  T </v>
   <v type="logical" >  T  T  T </v>
   <v type="logical" >  T  T  T </v>
   <v type="logical" >  T  T  T </v>
   <v type="logical" >  T  T  T </v>
   <v type="logical" >  T  T  T </v>
   <v type="logical" >  T  T  T </v>
   <v type="logical" >  T  T  T </v>
   <v type="logical" >  T  T  T </v>
   <v type="logical" >  T  T  T </v>
   <v type="logical" >  T  T  T </v>
   <v type="logical" >  T  T  T </v>
   <v type="logical" >  T  T  T </v>
   <v type="logical" >  T  T  T </v>
   <v type="logical" >  T  T  T </v>
   <v type="logical" >  T  T  T </v>
   <v type="logical" >  T  T  T </v>
   <v type="logical" >  T  T  T </v>
   <v type="logical" >  T  T  T </v>
   <v type="logical" >  T  T  T </v>
   <v type="logical" >  T  T  T </v>
   <v type="logical" >  T  T  T </v>
   <v type="logical" >  T  T  T </v>
   <v type="logical" >  T  T  T </v>
   <v type="logical" >  T  T  T </v>
   <v type="logical" >  T  T  T </v>
   <v type="logical" >  T  T  T </v>
   <v type="logical" >  T  T  T </v>
   <v type="logical" >  T  T  T </v>
   <v type="logical" >  T  T  T </v>
   <v type="logical" >  T  T  T </v>
   <v type="logical" >  T  T  T </v>
   <v type="logical" >  T  T  T </v>
   <v type="logical" >  T  T  T </v>
   <v type="logical" >  T  T  T </v>
   <v type="logical" >  T  T  T </v>
   <v type="logical" >  T  T  T </v>
   <v type="logical" >  T  T  T </v>
   <v type="logical" >  T  T  T </v>
   <v type="logical" >  T  T  T </v>
   <v type="logical" >  T  T  T </v>
   <v type="logical" >  T  T  T </v>
   <v type="logical" >  T  T  T </v>
   <v type="logical" >  T  T  T </v>
   <v type="logical" >  T  T  T </v>
   <v type="logical" >  T  T  T </v>
   <v type="logical" >  T  T  T </v>
   <v type="logical" >  T  T  T </v>
   <v type="logical" >  T  T  T </v>
   <v type="logical" >  T  T  T </v>
   <v type="logical" >  T  T  T </v>
   <v type="logical" >  T  T  T </v>
   <v type="logical" >  T  T  T </v>
   <v type="logical" >  T  T  T </v>
   <v type="logical" >  T  T  T </v>
   <v type="logical" >  T  T  T </v>
   <v type="logical" >  T  T  T </v>
   <v type="logical" >  T  T  T </v>
   <v type="logical" >  T  T  T </v>
   <v type="logical" >  T  T  T </v>
   <v type="logical" >  T  T  T </v>
   <v type="logical" >  T  T  T </v>
   <v type="logical" >  T  T  T </v>
   <v type="logical" >  T  T  T </v>
   <v type="logical" >  T  T  T </v>
   <v type="logical" >  T  T  T </v>
   <v type="logical" >  T  T  T </v>
   <v type="logical" >  T  T  T </v>
   <v type="logical" >  T  T  T </v>
   <v type="logical" >  T  T  T </v>
   <v type="logical" >  T  T  T </v>
   <v type="logical" >  T  T  T </v>
   <v type="logical" >  T  T  T </v>
   <v type="logical" >  T  T  T </v>
   <v type="logical" >  T  T  T </v>
   <v type="logical" >  T  T  T </v>
   <v type="logical" >  T  T  T </v>
   <v type="logical" >  T  T  T </v>
   <v type="logical" >  T  T  T </v>
   <v type="logical" >  T  T  T </v>
   <v type="logical" >  T  T  T </v>
   <v type="logical" >  T  T  T </v>
   <v type="logical" >  T  T  T </v>
   <v type="logical" >  T  T  T </v>
  </varray>
  <nose>
   <v>      -3.00000000       0.00000000       0.00010000       0.00010000 </v>
  </nose>
 </structure>
 <calculation>
  <scstep>
   <time name="dav">  941.18  951.98</time>
   <time name="total">  941.48  952.29</time>
   <energy>
    <i name="alphaZ">   4623.72760507 </i>
    <i name="ewald"> 916220.25783988 </i>
    <i name="hartreedc">**************** </i>
    <i name="XCdc">   6597.33927083 </i>
    <i name="pawpsdc"> 176849.62809079 </i>
    <i name="pawaedc">-192088.21954245 </i>
    <i name="eentropy">      0.00375037 </i>
    <i name="bandstr">  15996.79303757 </i>
    <i name="atom"> 200322.85745410 </i>
    <i name="e_fr_energy">  15535.74577143 </i>
    <i name="e_wo_entrp">  15535.74202106 </i>
    <i name="e_0_energy">  15535.74452130 </i>
   </energy>
  </scstep>
  <scstep>
   <time name="dav">  925.73  934.85</time>
   <time name="total">  925.74  934.87</time>
   <energy>
    <i name="e_fr_energy">   2261.25075380 </i>
    <i name="e_wo_entrp">   2261.25072042 </i>
    <i name="e_0_energy">   2261.25074268 </i>
   </energy>
  </scstep>
  <scstep>
   <time name="dav">  934.83  944.25</time>
   <time name="total">  934.84  944.27</time>
   <energy>
    <i name="e_fr_energy">   -387.69524860 </i>
    <i name="e_wo_entrp">   -387.81139216 </i>
    <i name="e_0_energy">   -387.73396312 </i>
   </energy>
  </scstep>
  <scstep>
   <time name="dav">  992.59 1002.54</time>
   <time name="total">  992.60 1002.55</time>
   <energy>
    <i name="e_fr_energy">   -608.84790904 </i>
    <i name="e_wo_entrp">   -609.09275667 </i>
    <i name="e_0_energy">   -608.92952491 </i>
   </energy>
  </scstep>
  <scstep>
   <time name="dav"> 1010.52 1020.51</time>
   <time name="total"> 1015.00 1025.03</time>
   <energy>
    <i name="e_fr_energy">   -614.80386460 </i>
    <i name="e_wo_entrp">   -615.05031702 </i>
    <i name="e_0_energy">   -614.88601541 </i>
   </energy>
  </scstep>
  <scstep>
   <time name="dav">  992.97 1002.63</time>
   <time name="total">  997.53 1007.24</time>
   <energy>
    <i name="e_fr_energy">   -500.01030652 </i>
    <i name="e_wo_entrp">   -499.95127108 </i>
    <i name="e_0_energy">   -499.99062804 </i>
   </energy>
  </scstep>
  <scstep>
   <time name="dav"> 1001.64 1011.21</time>
   <time name="total"> 1006.46 1016.07</time>
   <energy>
    <i name="e_fr_energy">   -441.15273346 </i>
    <i name="e_wo_entrp">   -441.09263558 </i>
    <i name="e_0_energy">   -441.13270083 </i>
   </energy>
  </scstep>
  <scstep>
   <time name="dav"> 1044.47 1055.29</time>
   <time name="total"> 1049.12 1059.99</time>
   <energy>
    <i name="e_fr_energy">   -441.81865402 </i>
    <i name="e_wo_entrp">   -441.76484891 </i>
    <i name="e_0_energy">   -441.80071898 </i>
   </energy>
  </scstep>
  <scstep>
   <time name="dav"> 1154.88 1166.40</time>
   <time name="total"> 1159.47 1171.04</time>
   <energy>
    <i name="e_fr_energy">   -434.00110830 </i>
    <i name="e_wo_entrp">   -433.98173272 </i>
    <i name="e_0_energy">   -433.99464977 </i>
   </energy>
  </scstep>
  <scstep>
   <time name="dav"> 1269.65 1282.48</time>
   <time name="total"> 1274.17 1287.04</time>
   <energy>
    <i name="e_fr_energy">   -430.10948972 </i>
    <i name="e_wo_entrp">   -430.00836342 </i>
    <i name="e_0_energy">   -430.07578096 </i>
   </energy>
  </scstep>
  <scstep>
   <time name="dav"> 1431.57 1446.64</time>
   <time name="total"> 1436.12 1451.24</time>
   <energy>
    <i name="e_fr_energy">   -432.91481550 </i>
    <i name="e_wo_entrp">   -432.81389335 </i>
    <i name="e_0_energy">   -432.88117478 </i>
   </energy>
  </scstep>
  <scstep>
   <time name="dav"> 1016.94 1027.89</time>
   <time name="total"> 1021.60 1032.59</time>
   <energy>
    <i name="e_fr_energy">   -443.04810099 </i>
    <i name="e_wo_entrp">   -442.96194363 </i>
    <i name="e_0_energy">   -443.01938187 </i>
   </energy>
  </scstep>
  <scstep>
   <time name="dav"> 1049.25 1060.20</time>
   <time name="total"> 1054.07 1065.07</time>
   <energy>
    <i name="e_fr_energy">   -446.28747625 </i>
    <i name="e_wo_entrp">   -446.22366314 </i>
    <i name="e_0_energy">   -446.26620521 </i>
   </energy>
  </scstep>
  <scstep>
   <time name="dav"> 1021.47 1032.71</time>
   <time name="total"> 1026.16 1037.45</time>
   <energy>
    <i name="e_fr_energy">   -456.63822141 </i>
    <i name="e_wo_entrp">   -456.59189519 </i>
    <i name="e_0_energy">   -456.62277934 </i>
   </energy>
  </scstep>
  <scstep>
   <time name="dav"> 1096.47 1107.89</time>
   <time name="total"> 1101.21 1112.68</time>
   <energy>
    <i name="e_fr_energy">   -467.74011932 </i>
    <i name="e_wo_entrp">   -467.75948749 </i>
    <i name="e_0_energy">   -467.74657538 </i>
   </energy>
  </scstep>
  <scstep>
   <time name="dav"> 1171.00 1182.76</time>
   <time name="total"> 1175.63 1187.43</time>
   <energy>
    <i name="e_fr_energy">   -489.71885639 </i>
    <i name="e_wo_entrp">   -489.83559948 </i>
    <i name="e_0_energy">   -489.75777076 </i>
   </energy>
  </scstep>
  <scstep>
   <time name="dav"> 1015.61 1026.55</time>
   <time name="total"> 1020.29 1031.28</time>
   <energy>
    <i name="e_fr_energy">   -495.37998352 </i>
    <i name="e_wo_entrp">   -495.51843317 </i>
    <i name="e_0_energy">   -495.42613341 </i>
   </energy>
  </scstep>
  <scstep>
   <time name="dav"> 1009.27 1019.57</time>
   <time name="total"> 1013.96 1024.30</time>
   <energy>
    <i name="e_fr_energy">   -498.79774042 </i>
    <i name="e_wo_entrp">   -498.94349132 </i>
    <i name="e_0_energy">   -498.84632405 </i>
   </energy>
  </scstep>
  <scstep>
   <time name="dav"> 1182.63 1195.37</time>
   <time name="total"> 1187.39 1200.18</time>
   <energy>
    <i name="e_fr_energy">   -505.24948346 </i>
    <i name="e_wo_entrp">   -505.39273408 </i>
    <i name="e_0_energy">   -505.29723367 </i>
   </energy>
  </scstep>
  <scstep>
   <time name="dav">  975.37  985.93</time>
   <time name="total">  979.97  990.57</time>
   <energy>
    <i name="e_fr_energy">   -510.50278538 </i>
    <i name="e_wo_entrp">   -510.62428422 </i>
    <i name="e_0_energy">   -510.54328499 </i>
   </energy>
  </scstep>
  <scstep>
   <time name="dav"> 1234.36 1247.24</time>
   <time name="total"> 1238.96 1251.88</time>
   <energy>
    <i name="e_fr_energy">   -513.31970216 </i>
    <i name="e_wo_entrp">   -513.43302818 </i>
    <i name="e_0_energy">   -513.35747750 </i>
   </energy>
  </scstep>
  <scstep>
   <time name="dav"> 1073.23 1084.31</time>
   <time name="total"> 1077.82 1088.94</time>
   <energy>
    <i name="e_fr_energy">   -515.42841671 </i>
    <i name="e_wo_entrp">   -515.54339859 </i>
    <i name="e_0_energy">   -515.46674400 </i>
   </energy>
  </scstep>
  <scstep>
   <time name="dav"> 1067.94 1079.89</time>
   <time name="total"> 1073.09 1085.22</time>
   <energy>
    <i name="e_fr_energy">   -516.85404431 </i>
    <i name="e_wo_entrp">   -516.96543867 </i>
    <i name="e_0_energy">   -516.89117576 </i>
   </energy>
  </scstep>
  <scstep>
   <time name="dav"> 1122.42 1134.16</time>
   <time name="total"> 1126.96 1138.74</time>
   <energy>
    <i name="e_fr_energy">   -518.21088852 </i>
    <i name="e_wo_entrp">   -518.33241342 </i>
    <i name="e_0_energy">   -518.25139682 </i>
   </energy>
  </scstep>
  <scstep>
   <time name="dav"> 1010.40 1021.89</time>
   <time name="total"> 1015.03 1026.55</time>
   <energy>
    <i name="e_fr_energy">   -519.14789888 </i>
    <i name="e_wo_entrp">   -519.26392493 </i>
    <i name="e_0_energy">   -519.18657423 </i>
   </energy>
  </scstep>
  <scstep>
   <time name="dav"> 1089.43 1101.26</time>
   <time name="total"> 1093.99 1105.85</time>
   <energy>
    <i name="e_fr_energy">   -519.81998431 </i>
    <i name="e_wo_entrp">   -519.93437896 </i>
    <i name="e_0_energy">   -519.85811586 </i>
   </energy>
  </scstep>
  <scstep>
   <time name="dav"> 1004.49 1015.97</time>
   <time name="total"> 1009.16 1020.68</time>
   <energy>
    <i name="e_fr_energy">   -520.64740822 </i>
    <i name="e_wo_entrp">   -520.76125592 </i>
    <i name="e_0_energy">   -520.68535745 </i>
   </energy>
  </scstep>
  <scstep>
   <time name="dav"> 1030.37 1041.36</time>
   <time name="total"> 1034.94 1045.97</time>
   <energy>
    <i name="e_fr_energy">   -521.31372583 </i>
    <i name="e_wo_entrp">   -521.42642201 </i>
    <i name="e_0_energy">   -521.35129122 </i>
   </energy>
  </scstep>
  <scstep>
   <time name="dav"> 1018.43 1029.93</time>
   <time name="total"> 1023.18 1034.72</time>
   <energy>
    <i name="e_fr_energy">   -521.42538997 </i>
    <i name="e_wo_entrp">   -521.53939658 </i>
    <i name="e_0_energy">   -521.46339217 </i>
   </energy>
  </scstep>
  <scstep>
   <time name="dav"> 1091.32 1102.81</time>
   <time name="total"> 1095.93 1107.47</time>
   <energy>
    <i name="e_fr_energy">   -521.45744577 </i>
    <i name="e_wo_entrp">   -521.57274072 </i>
    <i name="e_0_energy">   -521.49587742 </i>
   </energy>
  </scstep>
  <scstep>
   <time name="dav"> 1010.68 1021.71</time>
   <time name="total"> 1015.34 1026.42</time>
   <energy>
    <i name="e_fr_energy">   -521.47217857 </i>
    <i name="e_wo_entrp">   -521.58657685 </i>
    <i name="e_0_energy">   -521.51031133 </i>
   </energy>
  </scstep>
  <scstep>
   <time name="dav">  729.04  735.58</time>
   <time name="total">  733.76  740.35</time>
   <energy>
    <i name="e_fr_energy">   -521.47350554 </i>
    <i name="e_wo_entrp">   -521.58748252 </i>
    <i name="e_0_energy">   -521.51149786 </i>
   </energy>
  </scstep>
  <scstep>
   <time name="dav">  702.83  708.94</time>
   <time name="total">  707.65  713.81</time>
   <energy>
    <i name="e_fr_energy">   -521.47395713 </i>
    <i name="e_wo_entrp">   -521.58804709 </i>
    <i name="e_0_energy">   -521.51198711 </i>
   </energy>
  </scstep>
  <scstep>
   <time name="dav">  690.08  696.06</time>
   <time name="total">  690.37  696.36</time>
   <energy>
    <i name="alphaZ">   4623.72760507 </i>
    <i name="ewald"> 916220.25783988 </i>
    <i name="hartreedc">**************** </i>
    <i name="XCdc">   6429.56400727 </i>
    <i name="pawpsdc"> 189013.29683074 </i>
    <i name="pawaedc">-204533.24469528 </i>
    <i name="eentropy">      0.11416230 </i>
    <i name="bandstr">  -1759.37640055 </i>
    <i name="atom"> 200322.85745410 </i>
    <i name="e_fr_energy">   -521.47398465 </i>
    <i name="e_wo_entrp">   -521.58814695 </i>
    <i name="e_0_energy">   -521.51203875 </i>
   </energy>
  </scstep>
  <structure>
   <crystal>
    <varray name="basis" >
     <v>      10.89000034       0.00000000       0.00000000 </v>
     <v>       0.00000000      10.89000034       0.00000000 </v>
     <v>       0.00000000       0.00000000      27.70499992 </v>
    </varray>
    <i name="volume">   3285.59432860 </i>
    <varray name="rec_basis" >
     <v>       0.09182736       0.00000000       0.00000000 </v>
     <v>       0.00000000       0.09182736       0.00000000 </v>
     <v>       0.00000000       0.00000000       0.03609457 </v>
    </varray>
   </crystal>
   <varray name="positions" >
    <v>       0.00000000       0.00000000       0.00000000 </v>
    <v>       0.00000000       0.33333333       0.00000000 </v>
    <v>       0.00000000       0.66666667       0.00000000 </v>
    <v>       0.33333333       0.00000000       0.00000000 </v>
    <v>       0.33333333       0.33333333       0.00000000 </v>
    <v>       0.33333333       0.66666667       0.00000000 </v>
    <v>       0.66666667       0.00000000       0.00000000 </v>
    <v>       0.66666667       0.33333333       0.00000000 </v>
    <v>       0.66666667       0.66666667       0.00000000 </v>
    <v>       0.16666667       0.16666667       0.00000000 </v>
    <v>       0.16666667       0.50000000       0.00000000 </v>
    <v>       0.16666667       0.83333333       0.00000000 </v>
    <v>       0.50000000       0.16666667       0.00000000 </v>
    <v>       0.50000000       0.50000000       0.00000000 </v>
    <v>       0.50000000       0.83333333       0.00000000 </v>
    <v>       0.83333333       0.16666667       0.00000000 </v>
    <v>       0.83333333       0.50000000       0.00000000 </v>
    <v>       0.83333333       0.83333333       0.00000000 </v>
    <v>       0.00000000       0.16666667       0.06551164 </v>
    <v>       0.00000000       0.50000000       0.06551164 </v>
    <v>       0.00000000       0.83333333       0.06551164 </v>
    <v>       0.33333333       0.16666667       0.06551164 </v>
    <v>       0.33333333       0.50000000       0.06551164 </v>
    <v>       0.33333333       0.83333333       0.06551164 </v>
    <v>       0.66666667       0.16666667       0.06551164 </v>
    <v>       0.66666667       0.50000000       0.06551164 </v>
    <v>       0.66666667       0.83333333       0.06551164 </v>
    <v>       0.16666667       0.00000000       0.06551164 </v>
    <v>       0.16666667       0.33333333       0.06551164 </v>
    <v>       0.16666667       0.66666667       0.06551164 </v>
    <v>       0.50000000       0.00000000       0.06551164 </v>
    <v>       0.50000000       0.33333333       0.06551164 </v>
    <v>       0.50000000       0.66666667       0.06551164 </v>
    <v>       0.83333333       0.00000000       0.06551164 </v>
    <v>       0.83333333       0.33333333       0.06551164 </v>
    <v>       0.83333333       0.66666667       0.06551164 </v>
    <v>       0.00000000       0.00000000       0.13119553 </v>
    <v>       0.00000000       0.33333333       0.13119553 </v>
    <v>       0.00000000       0.66666667       0.13119553 </v>
    <v>       0.33333333       0.00000000       0.13119553 </v>
    <v>       0.33333333       0.33333333       0.13119553 </v>
    <v>       0.33333333       0.66666667       0.13119553 </v>
    <v>       0.66666667       0.00000000       0.13119553 </v>
    <v>       0.66666667       0.33333333       0.13119553 </v>
    <v>       0.66666667       0.66666667       0.13119553 </v>
    <v>       0.16666667       0.16666667       0.13119553 </v>
    <v>       0.16666667       0.50000000       0.13119553 </v>
    <v>       0.16666667       0.83333333       0.13119553 </v>
    <v>       0.50000000       0.16666667       0.13119553 </v>
    <v>       0.50000000       0.50000000       0.13119553 </v>
    <v>       0.50000000       0.83333333       0.13119553 </v>
    <v>       0.83333333       0.16666667       0.13119553 </v>
    <v>       0.83333333       0.50000000       0.13119553 </v>
    <v>       0.83333333       0.83333333       0.13119553 </v>
    <v>       0.00000000       0.16666667       0.19620680 </v>
    <v>       0.00000000       0.50000000       0.19620680 </v>
    <v>       0.00000000       0.83333333       0.19620680 </v>
    <v>       0.33333333       0.16666667       0.19620680 </v>
    <v>       0.33333333       0.50000000       0.19620680 </v>
    <v>       0.33333333       0.83333333       0.19620680 </v>
    <v>       0.66666667       0.16666667       0.19620680 </v>
    <v>       0.66666667       0.50000000       0.19620680 </v>
    <v>       0.66666667       0.83333333       0.19620680 </v>
    <v>       0.16666667       0.00000000       0.19620680 </v>
    <v>       0.16666667       0.33333333       0.19620680 </v>
    <v>       0.16666667       0.66666667       0.19620680 </v>
    <v>       0.50000000       0.00000000       0.19620680 </v>
    <v>       0.50000000       0.33333333       0.19620680 </v>
    <v>       0.50000000       0.66666667       0.19620680 </v>
    <v>       0.83333333       0.00000000       0.19620680 </v>
    <v>       0.83333333       0.33333333       0.19620680 </v>
    <v>       0.83333333       0.66666667       0.19620680 </v>
    <v>       0.00000000       0.00000000       0.25873860 </v>
    <v>       0.00000000       0.33333333       0.25873860 </v>
    <v>       0.00000000       0.66666667       0.25873860 </v>
    <v>       0.33333333       0.00000000       0.25873860 </v>
    <v>       0.33333333       0.33333333       0.25873860 </v>
    <v>       0.33333333       0.66666667       0.25873860 </v>
    <v>       0.66666667       0.00000000       0.25873860 </v>
    <v>       0.66666667       0.33333333       0.25873860 </v>
    <v>       0.66666667       0.66666667       0.25873860 </v>
    <v>       0.16666667       0.16666667       0.25873860 </v>
    <v>       0.16666667       0.50000000       0.25873860 </v>
    <v>       0.16666667       0.83333333       0.25873860 </v>
    <v>       0.50000000       0.16666667       0.25873860 </v>
    <v>       0.50000000       0.50000000       0.25873860 </v>
    <v>       0.50000000       0.83333333       0.25873860 </v>
    <v>       0.83333333       0.16666667       0.25873860 </v>
    <v>       0.83333333       0.50000000       0.25873860 </v>
    <v>       0.83333333       0.83333333       0.25873860 </v>
    <v>       0.00000000       0.16666667       0.32119954 </v>
    <v>       0.00000000       0.50000000       0.32119954 </v>
    <v>       0.00000000       0.83333333       0.32119954 </v>
    <v>       0.33333333       0.16666667       0.32119954 </v>
    <v>       0.33333333       0.50000000       0.32119954 </v>
    <v>       0.33333333       0.83333333       0.32119954 </v>
    <v>       0.66666667       0.16666667       0.32119954 </v>
    <v>       0.66666667       0.50000000       0.32119954 </v>
    <v>       0.66666667       0.83333333       0.32119954 </v>
    <v>       0.16666667       0.00000000       0.32119954 </v>
    <v>       0.16666667       0.33333333       0.32119954 </v>
    <v>       0.16666667       0.66666667       0.32119954 </v>
    <v>       0.50000000       0.00000000       0.32119954 </v>
    <v>       0.50000000       0.33333333       0.32119954 </v>
    <v>       0.50000000       0.66666667       0.32119954 </v>
    <v>       0.83333333       0.00000000       0.32119954 </v>
    <v>       0.83333333       0.33333333       0.32119954 </v>
    <v>       0.83333333       0.66666667       0.32119954 </v>
    <v>       0.00000000       0.00000000       0.38476372 </v>
    <v>       0.00000000       0.33333333       0.38476372 </v>
    <v>       0.00000000       0.66666667       0.38476372 </v>
    <v>       0.33333333       0.00000000       0.38476372 </v>
    <v>       0.33333333       0.33333333       0.38476372 </v>
    <v>       0.33333333       0.66666667       0.38476372 </v>
    <v>       0.66666667       0.00000000       0.38476372 </v>
    <v>       0.66666667       0.33333333       0.38476372 </v>
    <v>       0.66666667       0.66666667       0.38476372 </v>
    <v>       0.16666667       0.16666667       0.38476372 </v>
    <v>       0.16666667       0.50000000       0.38476372 </v>
    <v>       0.16666667       0.83333333       0.38476372 </v>
    <v>       0.50000000       0.16666667       0.38476372 </v>
    <v>       0.50000000       0.50000000       0.38476372 </v>
    <v>       0.50000000       0.83333333       0.38476372 </v>
    <v>       0.83333333       0.16666667       0.38476372 </v>
    <v>       0.83333333       0.50000000       0.38476372 </v>
    <v>       0.83333333       0.83333333       0.38476372 </v>
    <v>       0.00000000       0.16666667       0.44736473 </v>
    <v>       0.00000000       0.50000000       0.44736473 </v>
    <v>       0.00000000       0.83333333       0.44736473 </v>
    <v>       0.33333333       0.16666667       0.44736473 </v>
    <v>       0.33333333       0.50000000       0.44736473 </v>
    <v>       0.33333333       0.83333333       0.44736473 </v>
    <v>       0.66666667       0.16666667       0.44736473 </v>
    <v>       0.66666667       0.50000000       0.44736473 </v>
    <v>       0.66666667       0.83333333       0.44736473 </v>
    <v>       0.16666667       0.00000000       0.44736473 </v>
    <v>       0.16666667       0.33333333       0.44736473 </v>
    <v>       0.16666667       0.66666667       0.44736473 </v>
    <v>       0.50000000       0.00000000       0.44736473 </v>
    <v>       0.50000000       0.33333333       0.44736473 </v>
    <v>       0.50000000       0.66666667       0.44736473 </v>
    <v>       0.83333333       0.00000000       0.44736473 </v>
    <v>       0.83333333       0.33333333       0.44736473 </v>
    <v>       0.83333333       0.66666667       0.44736473 </v>
    <v>       0.25000000       0.41666667       0.50150658 </v>
    <v>       0.25000000       0.48516988       0.50150658 </v>
   </varray>
  </structure>
  <varray name="forces" >
   <v>       0.00077093       0.00132739       0.31002207 </v>
   <v>       0.00138915      -0.00293475       0.31077044 </v>
   <v>       0.00083343       0.00104705       0.31152301 </v>
   <v>       0.00019829       0.00065725       0.30952050 </v>
   <v>       0.00099752      -0.00307746       0.31016853 </v>
   <v>       0.00237044       0.00106246       0.31152825 </v>
   <v>      -0.00014799      -0.00051737       0.31507600 </v>
   <v>      -0.00179571       0.00029268       0.30994837 </v>
   <v>      -0.00278048      -0.00102976       0.31022465 </v>
   <v>      -0.00266538       0.00233675       0.31044497 </v>
   <v>      -0.00232800       0.00056718       0.31068922 </v>
   <v>      -0.00166833      -0.00178613       0.30930026 </v>
   <v>      -0.00046342       0.00186244       0.31058219 </v>
   <v>       0.00113766       0.00169065       0.31086490 </v>
   <v>      -0.00031267      -0.00292001       0.31034320 </v>
   <v>       0.00287239       0.00056406       0.31196223 </v>
   <v>       0.00023783       0.00026693       0.31059876 </v>
   <v>       0.00135080       0.00062946       0.31417922 </v>
   <v>       0.00159612       0.00329602      -0.08237672 </v>
   <v>       0.00354892       0.00052683      -0.07522612 </v>
   <v>       0.00023289      -0.00367262      -0.07892462 </v>
   <v>      -0.00053549       0.00464910      -0.07857110 </v>
   <v>      -0.00145576       0.00115752      -0.07291863 </v>
   <v>      -0.00247015       0.00231210      -0.08115106 </v>
   <v>      -0.00323685      -0.00016959      -0.07699456 </v>
   <v>       0.00279121      -0.00226466      -0.08273980 </v>
   <v>      -0.00091163       0.00024740      -0.07520387 </v>
   <v>       0.00475474      -0.00269844      -0.08476784 </v>
   <v>       0.00133878       0.00011403      -0.07560833 </v>
   <v>       0.00067222      -0.00495521      -0.07766249 </v>
   <v>      -0.00080293       0.00133726      -0.07797369 </v>
   <v>      -0.00434276      -0.00063993      -0.07852080 </v>
   <v>      -0.00362651      -0.00123091      -0.08239968 </v>
   <v>      -0.00068943      -0.00014356      -0.07474288 </v>
   <v>       0.00000012       0.00363339      -0.08203780 </v>
   <v>       0.00317631      -0.00147126      -0.07920024 </v>
   <v>      -0.00024008       0.00337700       0.00049847 </v>
   <v>       0.00580827      -0.00924118      -0.01076865 </v>
   <v>       0.00437278       0.00074712      -0.00857195 </v>
   <v>      -0.00030070       0.00228671       0.00869806 </v>
   <v>       0.00621385      -0.00536190      -0.00899893 </v>
   <v>       0.00834503      -0.00462940      -0.01106633 </v>
   <v>       0.00213295      -0.00087666      -0.00521548 </v>
   <v>      -0.00377783      -0.00164043       0.00267859 </v>
   <v>      -0.00569959       0.00130885      -0.00062035 </v>
   <v>      -0.00968521       0.00640615      -0.01085510 </v>
   <v>      -0.00606050       0.00590005      -0.00985597 </v>
   <v>      -0.00467223      -0.00454631      -0.00103960 </v>
   <v>       0.00076638       0.00522326      -0.00732404 </v>
   <v>      -0.00306704       0.00714932      -0.01383177 </v>
   <v>       0.00240295      -0.00672519      -0.00318091 </v>
   <v>       0.00313062      -0.00124961      -0.00245725 </v>
   <v>       0.00095063       0.00011098       0.00559273 </v>
   <v>      -0.00078382       0.00184993      -0.00486301 </v>
   <v>       0.00239751       0.00480129      -0.25699411 </v>
   <v>       0.00346879       0.00038906      -0.25482721 </v>
   <v>       0.00002406      -0.00570491      -0.26723654 </v>
   <v>       0.00044889       0.00425504      -0.24979419 </v>
   <v>      -0.00367930      -0.00133711      -0.27391848 </v>
   <v>      -0.00040688      -0.00331591      -0.26222215 </v>
   <v>      -0.00417032      -0.00140585      -0.26896470 </v>
   <v>      -0.00363495      -0.00020817      -0.26589609 </v>
   <v>       0.00019849       0.00192663      -0.26852714 </v>
   <v>       0.00153062       0.00125019      -0.27416906 </v>
   <v>       0.00116276       0.00159540      -0.26903342 </v>
   <v>      -0.00051326      -0.00236024      -0.25522051 </v>
   <v>       0.00075862       0.00280707      -0.27377806 </v>
   <v>      -0.00242758      -0.00140295      -0.25482972 </v>
   <v>      -0.00255094      -0.00092100      -0.25351923 </v>
   <v>      -0.00243638      -0.00120700      -0.26807120 </v>
   <v>       0.00456847       0.00060064      -0.27057054 </v>
   <v>       0.00544030       0.00026538      -0.27072447 </v>
   <v>       0.00336985      -0.00163175      -0.02760991 </v>
   <v>       0.00103494      -0.00318256      -0.02795339 </v>
   <v>       0.00013616       0.00245657      -0.03233603 </v>
   <v>      -0.00239165      -0.01172336      -0.03869824 </v>
   <v>      -0.00009490       0.00271377       0.00333437 </v>
   <v>       0.00168276      -0.00217410      -0.01683327 </v>
   <v>      -0.00221576       0.00135039      -0.02896374 </v>
   <v>       0.01444656      -0.00019449      -0.04120863 </v>
   <v>       0.00558288      -0.00041247      -0.03272217 </v>
   <v>      -0.00324004      -0.00314542      -0.04043427 </v>
   <v>       0.00204790      -0.00174087       0.00156797 </v>
   <v>      -0.00156823       0.01600450      -0.04589542 </v>
   <v>       0.00091006      -0.00005675      -0.03611933 </v>
   <v>      -0.00246695       0.00070594      -0.02248975 </v>
   <v>      -0.00044505       0.00217976      -0.03464103 </v>
   <v>      -0.00053856       0.00226802      -0.02910525 </v>
   <v>      -0.01780827      -0.00051438      -0.04474803 </v>
   <v>       0.00186137      -0.00293873      -0.02934781 </v>
   <v>      -0.00559001      -0.00353213       0.05414429 </v>
[...]
    <v>       0.00000000       0.33333333       0.00000000 </v>
    <v>       0.00000000       0.66666667       0.00000000 </v>
    <v>       0.33333333       0.00000000       0.00000000 </v>
    <v>       0.33333333       0.33333333       0.00000000 </v>
    <v>       0.33333333       0.66666667       0.00000000 </v>
    <v>       0.66666667       0.00000000       0.00000000 </v>
    <v>       0.66666667       0.33333333       0.00000000 </v>
    <v>       0.66666667       0.66666667       0.00000000 </v>
    <v>       0.16666667       0.16666667       0.00000000 </v>
    <v>       0.16666667       0.50000000       0.00000000 </v>
    <v>       0.16666667       0.83333333       0.00000000 </v>
    <v>       0.50000000       0.16666667       0.00000000 </v>
    <v>       0.50000000       0.50000000       0.00000000 </v>
    <v>       0.50000000       0.83333333       0.00000000 </v>
    <v>       0.83333333       0.16666667       0.00000000 </v>
    <v>       0.83333333       0.50000000       0.00000000 </v>
    <v>       0.83333333       0.83333333       0.00000000 </v>
    <v>       0.00000000       0.16666667       0.06551164 </v>
    <v>       0.00000000       0.50000000       0.06551164 </v>
    <v>       0.00000000       0.83333333       0.06551164 </v>
    <v>       0.33333333       0.16666667       0.06551164 </v>
    <v>       0.33333333       0.50000000       0.06551164 </v>
    <v>       0.33333333       0.83333333       0.06551164 </v>
    <v>       0.66666667       0.16666667       0.06551164 </v>
    <v>       0.66666667       0.50000000       0.06551164 </v>
    <v>       0.66666667       0.83333333       0.06551164 </v>
    <v>       0.16666667       0.00000000       0.06551164 </v>
    <v>       0.16666667       0.33333333       0.06551164 </v>
    <v>       0.16666667       0.66666667       0.06551164 </v>
    <v>       0.50000000       0.00000000       0.06551164 </v>
    <v>       0.50000000       0.33333333       0.06551164 </v>
    <v>       0.50000000       0.66666667       0.06551164 </v>
    <v>       0.83333333       0.00000000       0.06551164 </v>
    <v>       0.83333333       0.33333333       0.06551164 </v>
    <v>       0.83333333       0.66666667       0.06551164 </v>
    <v>       0.00000000       0.00000000       0.13119553 </v>
    <v>       0.00000000       0.33333333       0.13119553 </v>
    <v>       0.00000000       0.66666667       0.13119553 </v>
    <v>       0.33333333       0.00000000       0.13119553 </v>
    <v>       0.33333333       0.33333333       0.13119553 </v>
    <v>       0.33333333       0.66666667       0.13119553 </v>
    <v>       0.66666667       0.00000000       0.13119553 </v>
    <v>       0.66666667       0.33333333       0.13119553 </v>
    <v>       0.66666667       0.66666667       0.13119553 </v>
    <v>       0.16666667       0.16666667       0.13119553 </v>
    <v>       0.16666667       0.50000000       0.13119553 </v>
    <v>       0.16666667       0.83333333       0.13119553 </v>
    <v>       0.50000000       0.16666667       0.13119553 </v>
    <v>       0.50000000       0.50000000       0.13119553 </v>
    <v>       0.50000000       0.83333333       0.13119553 </v>
    <v>       0.83333333       0.16666667       0.13119553 </v>
    <v>       0.83333333       0.50000000       0.13119553 </v>
    <v>       0.83333333       0.83333333       0.13119553 </v>
    <v>      -0.00029099       0.16645498       0.19417307 </v>
    <v>      -0.00014960       0.49984166       0.19427718 </v>
    <v>      -0.00014405       0.83307792       0.19411736 </v>
    <v>       0.33319799       0.16658835       0.19421892 </v>
    <v>       0.33299749       0.49973832       0.19411019 </v>
    <v>       0.33330044       0.83298766       0.19408138 </v>
    <v>       0.66636161       0.16670075       0.19416348 </v>
    <v>       0.66621373       0.50000975       0.19400379 </v>
    <v>       0.66633548       0.83300443       0.19420351 </v>
    <v>       0.16658712      -0.00017369       0.19394855 </v>
    <v>       0.16663759       0.33340057       0.19422065 </v>
    <v>       0.16662265       0.66634132       0.19422243 </v>
    <v>       0.49964857      -0.00020631       0.19411886 </v>
    <v>       0.49969141       0.33332211       0.19420294 </v>
    <v>       0.49982692       0.66653557       0.19415978 </v>
    <v>       0.83313190      -0.00015232       0.19422320 </v>
    <v>       0.83309047       0.33327841       0.19401672 </v>
    <v>       0.83301314       0.66641469       0.19409051 </v>
    <v>      -0.00058877      -0.00059021       0.25674288 </v>
    <v>      -0.00060786       0.33306776       0.25682647 </v>
    <v>      -0.00048892       0.66651078       0.25677942 </v>
    <v>       0.33332807      -0.00063149       0.25697659 </v>
    <v>       0.33318809       0.33324408       0.25701843 </v>
    <v>       0.33324909       0.66633379       0.25695764 </v>
    <v>       0.66599749      -0.00035847       0.25689305 </v>
    <v>       0.66607057       0.33332307       0.25685428 </v>
    <v>       0.66598072       0.66646935       0.25697471 </v>
    <v>       0.16650492       0.16613766       0.25680014 </v>
    <v>       0.16653078       0.49978888       0.25703413 </v>
    <v>       0.16658764       0.83308382       0.25678233 </v>
    <v>       0.49977769       0.16643971       0.25683758 </v>
    <v>       0.49961798       0.49989700       0.25698570 </v>
    <v>       0.49979937       0.83285709       0.25694994 </v>
    <v>       0.83254767       0.16623656       0.25678590 </v>
    <v>       0.83221109       0.49990534       0.25696066 </v>
    <v>       0.83271186       0.83283062       0.25685496 </v>
    <v>      -0.00092654       0.16591178       0.31934294 </v>
    <v>      -0.00059823       0.49989584       0.31952913 </v>
    <v>      -0.00080483       0.83277975       0.31954450 </v>
    <v>       0.33335430       0.16656575       0.31979157 </v>
    <v>       0.33298220       0.49990276       0.31990078 </v>
    <v>       0.33326476       0.83214027       0.31993317 </v>
    <v>       0.66565523       0.16625326       0.31971488 </v>
    <v>       0.66483705       0.49984143       0.32003095 </v>
    <v>       0.66570525       0.83267707       0.31989098 </v>
    <v>       0.16633705      -0.00070569       0.31936436 </v>
    <v>       0.16622377       0.33284450       0.31954019 </v>
    <v>       0.16630841       0.66642528       0.31969862 </v>
    <v>       0.49979153      -0.00057089       0.31985699 </v>
    <v>       0.49929459       0.33327303       0.31998075 </v>
    <v>       0.49915757       0.66605022       0.32022386 </v>
    <v>       0.83216517      -0.00078494       0.31951582 </v>
    <v>       0.83204865       0.33293194       0.31951323 </v>
    <v>       0.83222766       0.66645036       0.31975720 </v>
    <v>      -0.00114381      -0.00082049       0.38286961 </v>
    <v>      -0.00153497       0.33251877       0.38251519 </v>
    <v>      -0.00100103       0.66650259       0.38299419 </v>
    <v>       0.33305896      -0.00094953       0.38326548 </v>
    <v>       0.33224232       0.33416023       0.38380677 </v>
    <v>       0.33219766       0.66488969       0.38447052 </v>
    <v>       0.66569607      -0.00062557       0.38344183 </v>
    <v>       0.66571953       0.33307031       0.38351971 </v>
    <v>       0.66564900       0.66604418       0.38380493 </v>
    <v>       0.16581327       0.16502585       0.38259336 </v>
    <v>       0.16646385       0.49961417       0.38345591 </v>
    <v>       0.16593276       0.83353849       0.38313169 </v>
    <v>       0.49928203       0.16642543       0.38344363 </v>
    <v>       0.49720799       0.49974418       0.38469649 </v>
    <v>       0.49927468       0.83257510       0.38376184 </v>
    <v>       0.83198816       0.16594503       0.38296087 </v>
    <v>       0.83186417       0.49966082       0.38312478 </v>
    <v>       0.83223140       0.83271479       0.38331508 </v>
    <v>      -0.00211674       0.16470638       0.44545923 </v>
    <v>      -0.00094893       0.49905047       0.44515238 </v>
    <v>      -0.00153259       0.83390646       0.44598321 </v>
    <v>       0.33205186       0.16611950       0.44565025 </v>
    <v>       0.32823261       0.49801247       0.44965316 </v>
    <v>       0.33229338       0.83301857       0.44638413 </v>
    <v>       0.66625091       0.16623349       0.44617306 </v>
    <v>       0.66610772       0.49938531       0.44642637 </v>
    <v>       0.66634763       0.83293381       0.44633148 </v>
    <v>       0.16570980      -0.00032800       0.44581996 </v>
    <v>       0.16242097       0.32903717       0.44473497 </v>
    <v>       0.16333722       0.66816712       0.44569998 </v>
    <v>       0.49933319      -0.00027532       0.44618001 </v>
    <v>       0.49952725       0.33218133       0.44624131 </v>
    <v>       0.49952825       0.66681995       0.44669469 </v>
    <v>       0.83203749      -0.00052661       0.44586531 </v>
    <v>       0.83298650       0.33256819       0.44580259 </v>
    <v>       0.83305110       0.66608211       0.44614708 </v>
    <v>       0.30732916       0.44215264       0.51424231 </v>
    <v>       0.27795866       0.50818558       0.51664287 </v>
   </varray>
  </structure>
  <varray name="forces" >
   <v>      -0.00458787      -0.00037455       0.31294514 </v>
   <v>       0.00156277      -0.00295644       0.31252437 </v>
   <v>       0.00128617      -0.00077636       0.31289065 </v>
   <v>      -0.00222763      -0.00103302       0.31331955 </v>
   <v>      -0.00203133      -0.00427852       0.31153650 </v>
   <v>      -0.00171637       0.00035439       0.31286439 </v>
   <v>       0.00048402      -0.00212614       0.31352014 </v>
   <v>      -0.00575088      -0.00257975       0.31315764 </v>
   <v>      -0.00618201      -0.00041756       0.31311313 </v>
   <v>      -0.00428890       0.00268010       0.31254191 </v>
   <v>      -0.00538760      -0.00126665       0.31085088 </v>
   <v>      -0.00398463      -0.00531652       0.31288153 </v>
   <v>      -0.00150636       0.00193450       0.31292368 </v>
   <v>      -0.00063971      -0.00090387       0.31305742 </v>
   <v>      -0.00090582      -0.00520276       0.31290270 </v>
   <v>      -0.00077211      -0.00425227       0.31338589 </v>
   <v>      -0.00156429      -0.00147421       0.31352819 </v>
   <v>      -0.00245170       0.00167845       0.31386618 </v>
   <v>      -0.00155644       0.00028610      -0.08825353 </v>
   <v>      -0.00085516      -0.00116076      -0.08562024 </v>
   <v>      -0.00203314      -0.00395682      -0.08636654 </v>
   <v>      -0.00184883      -0.00017166      -0.08697731 </v>
   <v>      -0.00182087      -0.00083453      -0.08163628 </v>
   <v>      -0.00248094      -0.00050445      -0.08796750 </v>
   <v>      -0.00447101      -0.00146641      -0.08527534 </v>
   <v>      -0.00027203      -0.00186765      -0.08835032 </v>
   <v>      -0.00337981      -0.00165922      -0.08517300 </v>
   <v>      -0.00005708      -0.00276125      -0.08904505 </v>
   <v>      -0.00223970      -0.00146314      -0.08802882 </v>
   <v>      -0.00205395      -0.00354624      -0.08857981 </v>
   <v>      -0.00319930      -0.00064170      -0.08623596 </v>
   <v>      -0.00480179      -0.00197018      -0.08920096 </v>
   <v>      -0.00404542      -0.00182363      -0.09126991 </v>
   <v>      -0.00274826      -0.00155980      -0.08350649 </v>
   <v>      -0.00306552       0.00020315      -0.08818414 </v>
   <v>      -0.00106984      -0.00250868      -0.08676589 </v>
   <v>      -0.01592246      -0.00397919      -0.22915524 </v>
   <v>       0.00688458      -0.00851279      -0.22558809 </v>
   <v>       0.00337825      -0.00867612      -0.22645266 </v>
   <v>      -0.00287181      -0.00069395      -0.22373069 </v>
   <v>      -0.00380870      -0.01260948      -0.23574748 </v>
   <v>      -0.00377761      -0.00974007      -0.23857655 </v>
   <v>      -0.00265216      -0.00652792      -0.22054760 </v>
   <v>      -0.02018256      -0.00906642      -0.23321236 </v>
   <v>      -0.01598294       0.00414176      -0.23893885 </v>
   <v>      -0.01237395       0.01206095      -0.22718699 </v>
   <v>      -0.01842236      -0.00221695      -0.23563519 </v>
   <v>      -0.01011024      -0.02200051      -0.23182401 </v>
   <v>      -0.00643955       0.00456482      -0.22827546 </v>
   <v>      -0.01552824      -0.00252267      -0.24295011 </v>
   <v>       0.00101595      -0.01280606      -0.23560642 </v>
   <v>      -0.00764024      -0.01280069      -0.22782920 </v>
   <v>       0.00109821      -0.00306303      -0.22254878 </v>
   <v>      -0.01071725       0.00082959      -0.22530952 </v>
   <v>       0.01043839       0.01014497      -0.02215591 </v>
   <v>      -0.00909020       0.00098868      -0.02229562 </v>
   <v>      -0.00500169      -0.00169757      -0.02524022 </v>
   <v>      -0.00137471      -0.00443938      -0.01634456 </v>
   <v>       0.01580575       0.01171939      -0.01369250 </v>
   <v>      -0.00539771       0.00900896      -0.00347000 </v>
   <v>      -0.00226719      -0.01486541      -0.03454160 </v>
   <v>       0.00873449      -0.00717131       0.00572013 </v>
   <v>       0.00599892       0.01527011      -0.03900369 </v>
   <v>       0.00280376      -0.00145563       0.00508289 </v>
   <v>      -0.01421282      -0.01930487      -0.01889441 </v>
   <v>      -0.00685702       0.00729062      -0.02399746 </v>
   <v>       0.01125543       0.00052174      -0.02915720 </v>
   <v>       0.00081817      -0.00348477      -0.02402421 </v>
   <v>      -0.00876362      -0.00738952      -0.01871330 </v>
   <v>      -0.01862204      -0.01062728      -0.04370019 </v>
   <v>      -0.00429747       0.00306630      -0.00322656 </v>
   <v>       0.00035442       0.00190390      -0.02177236 </v>
   <v>       0.01898782       0.00854752       0.01608325 </v>
   <v>       0.00134356      -0.00078668       0.00648054 </v>
   <v>      -0.00162848      -0.00535670       0.02002662 </v>
   <v>      -0.00575916       0.01187284      -0.00670254 </v>
   <v>      -0.00251143      -0.00316212       0.01244554 </v>
   <v>      -0.00264356      -0.00053354       0.01135905 </v>
   <v>       0.00205990      -0.00378227      -0.00143065 </v>
   <v>      -0.00077933      -0.00215297       0.00653308 </v>
   <v>       0.00308419      -0.01374154       0.00056425 </v>
   <v>      -0.00400196       0.00903435       0.00258454 </v>
   <v>      -0.00375510       0.00240964       0.00750837 </v>
   <v>      -0.00536412      -0.00493775       0.00541524 </v>
   <v>      -0.01223824       0.00021311       0.01926928 </v>
   <v>      -0.00933535       0.00057781       0.00352554 </v>
   <v>      -0.01571503       0.00336437       0.00603541 </v>
   <v>       0.00572126       0.01801655       0.01585900 </v>
   <v>       0.01713109      -0.00291780      -0.00755034 </v>
   <v>      -0.00297008       0.00153614       0.00439233 </v>
   <v>       0.00311455       0.00453031       0.00667646 </v>
   <v>      -0.00370700      -0.00386641       0.01641764 </v>
   <v>       0.01364695       0.00126145       0.00267364 </v>
   <v>      -0.01231639      -0.00436480       0.00466310 </v>
   <v>      -0.00131324      -0.00176671       0.00478639 </v>
   <v>      -0.01360211      -0.00046975       0.02330010 </v>
   <v>      -0.00004756       0.01517329       0.00402278 </v>
   <v>       0.00423217      -0.00438704       0.02428959 </v>
   <v>       0.00071200      -0.00294175       0.00463567 </v>
   <v>       0.00569310       0.00047060       0.02010326 </v>
   <v>       0.00497803       0.00852682       0.00809410 </v>
   <v>       0.00825217       0.00365601       0.00954379 </v>
   <v>      -0.02598136       0.00281672      -0.00315319 </v>
   <v>       0.00462034       0.00796557      -0.00001802 </v>
   <v>       0.00141921       0.00076966      -0.00597026 </v>
   <v>       0.01004920       0.01017783       0.01604489 </v>
   <v>       0.00733406       0.01442906       0.00978518 </v>
   <v>       0.00564892      -0.01692102      -0.00358235 </v>
   <v>       0.00947964       0.00549714       0.01809503 </v>
   <v>       0.00269196       0.00508507       0.03923074 </v>
   <v>      -0.00775244       0.00263397       0.02909041 </v>
   <v>      -0.01071164       0.01064121       0.01708248 </v>
   <v>       0.00646245      -0.01013123       0.00974049 </v>
   <v>       0.00189129      -0.01718480       0.02905499 </v>
   <v>       0.00033606       0.00846766       0.00751172 </v>
   <v>       0.00315392       0.00677923       0.00464305 </v>
   <v>       0.00186473      -0.00388337       0.00179355 </v>
   <v>       0.00555342       0.01281405       0.03206825 </v>
   <v>      -0.00041021      -0.00391164      -0.00620128 </v>
   <v>       0.00780380      -0.01481649       0.01603121 </v>
   <v>       0.00449511      -0.00977330       0.01594563 </v>
   <v>      -0.00930188      -0.00752194       0.02304878 </v>
   <v>      -0.00706949       0.00426383       0.00702624 </v>
   <v>       0.00851108       0.00756045       0.01717047 </v>
   <v>       0.01153241      -0.00176588       0.01934236 </v>
   <v>       0.00868286       0.00235152       0.00925848 </v>
   <v>       0.02074028       0.02232724       0.00806670 </v>
   <v>      -0.00784231       0.00814800       0.02151009 </v>
   <v>       0.01399657      -0.01621721      -0.01251296 </v>
   <v>       0.00784804       0.00321998       0.01155839 </v>
   <v>       0.06124897       0.04198764      -0.01353387 </v>
   <v>      -0.00516381      -0.00767136      -0.02469521 </v>
   <v>      -0.00577902      -0.00021760      -0.01016452 </v>
   <v>      -0.00492248      -0.00023400      -0.02133945 </v>
   <v>      -0.00933263       0.00101472      -0.00569326 </v>
   <v>       0.00241917       0.00190548       0.00128085 </v>
   <v>      -0.01986213      -0.01483374       0.00474833 </v>
   <v>       0.02000977       0.00774122       0.00042021 </v>
   <v>      -0.00466348       0.00207155      -0.00000528 </v>
   <v>       0.00820067      -0.00150519      -0.00789204 </v>
   <v>      -0.01446595      -0.01887356      -0.02152889 </v>
   <v>       0.01248477       0.00504058       0.00546198 </v>
   <v>      -0.00242178       0.00983794       0.00246857 </v>
   <v>       0.00137772      -0.00041515      -0.01014783 </v>
   <v>       0.04551516       0.07095697       0.00889079 </v>
   <v>       0.08543196      -0.00679193      -0.05836724 </v>
  </varray>
  <varray name="stress" >
   <v>     -34.99327650      -0.01100532       0.64987053 </v>
   <v>      -0.01100531     -34.99953465       0.33332987 </v>
   <v>       0.64987039       0.33332993     -13.20872913 </v>
  </varray>
  <energy>
   <i name="e_fr_energy">   -582.22479849 </i>
   <i name="e_wo_entrp">   -582.34069858 </i>
   <i name="e_0_energy">   -582.26343186 </i>
  </energy>
  <time name="totalsc"> 6604.66 6662.99</time>
 </calculation>
 <calculation>
  <scstep>
   <time name="dav">  961.36  970.05</time>
   <time name="total">  966.13  974.86</time>
   <energy>
    <i name="alphaZ">   4623.72760507 </i>
    <i name="ewald"> 923561.01255003 </i>
    <i name="hartreedc">**************** </i>
    <i name="XCdc">   6429.98423862 </i>
    <i name="pawpsdc"> 189118.40127839 </i>
    <i name="pawaedc">-204640.19750171 </i>
    <i name="eentropy">      0.11588578 </i>
    <i name="bandstr">  -1771.00531293 </i>
    <i name="atom"> 200322.85745410 </i>
    <i name="e_fr_energy">   -521.72468680 </i>
    <i name="e_wo_entrp">   -521.84057258 </i>
    <i name="e_0_energy">   -521.76331539 </i>
   </energy>
  </scstep>
  <scstep>
   <time name="dav"> 1271.69 1282.78</time>
   <time name="total"> 1276.77 1287.92</time>
   <energy>
    <i name="e_fr_energy">   -521.72680803 </i>
    <i name="e_wo_entrp">   -521.84259396 </i>
    <i name="e_0_energy">   -521.76540334 </i>
   </energy>
  </scstep>
  <scstep>
