unknown system                          
           1
    10.890000    0.000000    0.000000
     0.000000   10.890000    0.000000
     0.000000    0.000000   27.705000
   Cu   H 
   144     2
Direct configuration=     1
   0.00000000  0.00000000  0.00000000
   0.00000000  0.33333333  0.00000000
   0.00000000  0.66666667  0.00000000
   0.33333333  0.00000000  0.00000000
   0.33333333  0.33333333  0.00000000
   0.33333333  0.66666667  0.00000000
   0.66666667  0.00000000  0.00000000
   0.66666667  0.33333333  0.00000000
   0.66666667  0.66666667  0.00000000
   0.16666667  0.16666667  0.00000000
   0.16666667  0.50000000  0.00000000
   0.16666667  0.83333333  0.00000000
   0.50000000  0.16666667  0.00000000
   0.50000000  0.50000000  0.00000000
   0.50000000  0.83333333  0.00000000
   0.83333333  0.16666667  0.00000000
   0.83333333  0.50000000  0.00000000
   0.83333333  0.83333333  0.00000000
   0.00000000  0.16666667  0.06551164
   0.00000000  0.50000000  0.06551164
   0.00000000  0.83333333  0.06551164
   0.33333333  0.16666667  0.06551164
   0.33333333  0.50000000  0.06551164
   0.33333333  0.83333333  0.06551164
   0.66666667  0.16666667  0.06551164
   0.66666667  0.50000000  0.06551164
   0.66666667  0.83333333  0.06551164
   0.16666667  0.00000000  0.06551164
   0.16666667  0.33333333  0.06551164
   0.16666667  0.66666667  0.06551164
   0.50000000  0.00000000  0.06551164
   0.50000000  0.33333333  0.06551164
   0.50000000  0.66666667  0.06551164
   0.83333333  0.00000000  0.06551164
   0.83333333  0.33333333  0.06551164
   0.83333333  0.66666667  0.06551164
   0.00000000  0.00000000  0.13119553
   0.00000000  0.33333333  0.13119553
   0.00000000  0.66666667  0.13119553
   0.33333333  0.00000000  0.13119553
   0.33333333  0.33333333  0.13119553
   0.33333333  0.66666667  0.13119553
   0.66666667  0.00000000  0.13119553
   0.66666667  0.33333333  0.13119553
   0.66666667  0.66666667  0.13119553
   0.16666667  0.16666667  0.13119553
   0.16666667  0.50000000  0.13119553
   0.16666667  0.83333333  0.13119553
   0.50000000  0.16666667  0.13119553
   0.50000000  0.50000000  0.13119553
   0.50000000  0.83333333  0.13119553
   0.83333333  0.16666667  0.13119553
   0.83333333  0.50000000  0.13119553
   0.83333333  0.83333333  0.13119553
   0.00000000  0.16666667  0.19620680
   0.00000000  0.50000000  0.19620680
   0.00000000  0.83333333  0.19620680
   0.33333333  0.16666667  0.19620680
   0.33333333  0.50000000  0.19620680
   0.33333333  0.83333333  0.19620680
   0.66666667  0.16666667  0.19620680
   0.66666667  0.50000000  0.19620680
   0.66666667  0.83333333  0.19620680
   0.16666667  0.00000000  0.19620680
   0.16666667  0.33333333  0.19620680
   0.16666667  0.66666667  0.19620680
   0.50000000  0.00000000  0.19620680
   0.50000000  0.33333333  0.19620680
   0.50000000  0.66666667  0.19620680
   0.83333333  0.00000000  0.19620680
   0.83333333  0.33333333  0.19620680
   0.83333333  0.66666667  0.19620680
   0.00000000  0.00000000  0.25873860
   0.00000000  0.33333333  0.25873860
   0.00000000  0.66666667  0.25873860
   0.33333333  0.00000000  0.25873860
   0.33333333  0.33333333  0.25873860
   0.33333333  0.66666667  0.25873860
   0.66666667  0.00000000  0.25873860
   0.66666667  0.33333333  0.25873860
   0.66666667  0.66666667  0.25873860
   0.16666667  0.16666667  0.25873860
   0.16666667  0.50000000  0.25873860
   0.16666667  0.83333333  0.25873860
   0.50000000  0.16666667  0.25873860
   0.50000000  0.50000000  0.25873860
   0.50000000  0.83333333  0.25873860
   0.83333333  0.16666667  0.25873860
   0.83333333  0.50000000  0.25873860
   0.83333333  0.83333333  0.25873860
   0.00000000  0.16666667  0.32119954
   0.00000000  0.50000000  0.32119954
   0.00000000  0.83333333  0.32119954
   0.33333333  0.16666667  0.32119954
   0.33333333  0.50000000  0.32119954
   0.33333333  0.83333333  0.32119954
   0.66666667  0.16666667  0.32119954
   0.66666667  0.50000000  0.32119954
   0.66666667  0.83333333  0.32119954
   0.16666667  0.00000000  0.32119954
   0.16666667  0.33333333  0.32119954
   0.16666667  0.66666667  0.32119954
   0.50000000  0.00000000  0.32119954
   0.50000000  0.33333333  0.32119954
   0.50000000  0.66666667  0.32119954
   0.83333333  0.00000000  0.32119954
   0.83333333  0.33333333  0.32119954
   0.83333333  0.66666667  0.32119954
   0.00000000  0.00000000  0.38476372
   0.00000000  0.33333333  0.38476372
   0.00000000  0.66666667  0.38476372
   0.33333333  0.00000000  0.38476372
   0.33333333  0.33333333  0.38476372
   0.33333333  0.66666667  0.38476372
   0.66666667  0.00000000  0.38476372
   0.66666667  0.33333333  0.38476372
   0.66666667  0.66666667  0.38476372
   0.16666667  0.16666667  0.38476372
   0.16666667  0.50000000  0.38476372
   0.16666667  0.83333333  0.38476372
   0.50000000  0.16666667  0.38476372
   0.50000000  0.50000000  0.38476372
   0.50000000  0.83333333  0.38476372
   0.83333333  0.16666667  0.38476372
   0.83333333  0.50000000  0.38476372
   0.83333333  0.83333333  0.38476372
   0.00000000  0.16666667  0.44736473
   0.00000000  0.50000000  0.44736473
   0.00000000  0.83333333  0.44736473
   0.33333333  0.16666667  0.44736473
   0.33333333  0.50000000  0.44736473
   0.33333333  0.83333333  0.44736473
   0.66666667  0.16666667  0.44736473
   0.66666667  0.50000000  0.44736473
   0.66666667  0.83333333  0.44736473
   0.16666667  0.00000000  0.44736473
   0.16666667  0.33333333  0.44736473
   0.16666667  0.66666667  0.44736473
   0.50000000  0.00000000  0.44736473
   0.50000000  0.33333333  0.44736473
   0.50000000  0.66666667  0.44736473
   0.83333333  0.00000000  0.44736473
   0.83333333  0.33333333  0.44736473
   0.83333333  0.66666667  0.44736473
   0.25000000  0.41666667  0.50150658
   0.25000000  0.48516988  0.50150658
Direct configuration=     2
   0.00000000  0.00000000  0.00000000
   0.00000000  0.33333333  0.00000000
   0.00000000  0.66666667  0.00000000
   0.33333333  0.00000000  0.00000000
   0.33333333  0.33333333  0.00000000
   0.33333333  0.66666667  0.00000000
   0.66666667  0.00000000  0.00000000
   0.66666667  0.33333333  0.00000000
   0.66666667  0.66666667  0.00000000
   0.16666667  0.16666667  0.00000000
   0.16666667  0.50000000  0.00000000
   0.16666667  0.83333333  0.00000000
   0.50000000  0.16666667  0.00000000
   0.50000000  0.50000000  0.00000000
   0.50000000  0.83333333  0.00000000
   0.83333333  0.16666667  0.00000000
   0.83333333  0.50000000  0.00000000
   0.83333333  0.83333333  0.00000000
   0.00000000  0.16666667  0.06551164
   0.00000000  0.50000000  0.06551164
   0.00000000  0.83333333  0.06551164
   0.33333333  0.16666667  0.06551164
   0.33333333  0.50000000  0.06551164
   0.33333333  0.83333333  0.06551164
   0.66666667  0.16666667  0.06551164
   0.66666667  0.50000000  0.06551164
   0.66666667  0.83333333  0.06551164
   0.16666667  0.00000000  0.06551164
   0.16666667  0.33333333  0.06551164
   0.16666667  0.66666667  0.06551164
   0.50000000  0.00000000  0.06551164
   0.50000000  0.33333333  0.06551164
   0.50000000  0.66666667  0.06551164
   0.83333333  0.00000000  0.06551164
   0.83333333  0.33333333  0.06551164
   0.83333333  0.66666667  0.06551164
   0.00000000  0.00000000  0.13119553
   0.00000000  0.33333333  0.13119553
   0.00000000  0.66666667  0.13119553
   0.33333333  0.00000000  0.13119553
   0.33333333  0.33333333  0.13119553
   0.33333333  0.66666667  0.13119553
   0.66666667  0.00000000  0.13119553
   0.66666667  0.33333333  0.13119553
   0.66666667  0.66666667  0.13119553
   0.16666667  0.16666667  0.13119553
   0.16666667  0.50000000  0.13119553
   0.16666667  0.83333333  0.13119553
   0.50000000  0.16666667  0.13119553
   0.50000000  0.50000000  0.13119553
   0.50000000  0.83333333  0.13119553
   0.83333333  0.16666667  0.13119553
   0.83333333  0.50000000  0.13119553
   0.83333333  0.83333333  0.13119553
   0.00001062  0.16668794  0.19575929
   0.00001537  0.50000172  0.19576307
   0.00000011  0.83330806  0.19574146
   0.33333532  0.16668552  0.19577183
   0.33331703  0.49999408  0.19572982
   0.33333153  0.83331864  0.19575019
   0.66664819  0.16666044  0.19573845
   0.66665056  0.49999908  0.19574379
   0.66666755  0.83334187  0.19573921
   0.16667345  0.00000554  0.19572939
   0.16667182  0.33334040  0.19573833
   0.16666439  0.66665621  0.19576238
   0.50000336  0.00001244  0.19573007
   0.49998925  0.33332712  0.19576306
   0.49998870  0.66666259  0.19576534
   0.83332254 -0.00000535  0.19574000
   0.83335357  0.33333599  0.19573565
   0.83335743  0.66666784  0.19573538
   0.00001493 -0.00000723  0.25869052
   0.00000458  0.33331923  0.25868992
   0.00000060  0.66667755  0.25868229
   0.33332274 -0.00005193  0.25867121
   0.33333291  0.33334536  0.25874440
   0.33334079  0.66665704  0.25870929
   0.66665685  0.00000598  0.25868816
   0.66673066  0.33333247  0.25866684
   0.66669140  0.66666484  0.25868162
   0.16665231  0.16665273  0.25866819
   0.16667574  0.49999229  0.25874133
   0.16665972  0.83340423  0.25865868
   0.50000403  0.16666642  0.25867570
   0.49998907  0.50000313  0.25869944
   0.49999803  0.83334299  0.25867828
   0.83333095  0.16667671  0.25868792
   0.83325444  0.49999772  0.25866068
   0.83334158  0.83332031  0.25868749
  -0.00002476  0.16665102  0.32129382
  -0.00005243  0.50001777  0.32124241
  -0.00000352  0.83329631  0.32129410
   0.33335724  0.16663024  0.32127253
   0.33330052  0.49998340  0.32129054
   0.33334448  0.83325214  0.32131268
   0.66662884  0.16667024  0.32128819
   0.66656509  0.50000409  0.32131057
   0.66664913  0.83332690  0.32128843
   0.16666319  0.00006787  0.32130209
   0.16667562  0.33333750  0.32126729
   0.16664366  0.66671851  0.32124280
   0.50000456  0.00003636  0.32128136
   0.50006277  0.33329349  0.32124514
   0.50005713  0.66671713  0.32126756
   0.83332899  0.00000158  0.32128818
   0.83340364  0.33332864  0.32130448
   0.83338078  0.66666718  0.32129353
   0.00000411 -0.00001629  0.38480439
   0.00012996  0.33341796  0.38487399
   0.00006426  0.66661935  0.38485068
   0.33334118 -0.00008624  0.38480785
   0.33342651  0.33324835  0.38461431
   0.33329290  0.66644343  0.38488709
   0.66665906  0.00000336  0.38480459
   0.66676836  0.33332895  0.38480330
   0.66671079  0.66667415  0.38480271
   0.16671274  0.16675494  0.38485929
   0.16642329  0.50011565  0.38446001
   0.16666534  0.83345063  0.38479448
   0.49998751  0.16666918  0.38481978
   0.49973103  0.49995678  0.38490515
   0.50001736  0.83336560  0.38479325
   0.83332250  0.16665770  0.38479938
   0.83318608  0.50000648  0.38479189
   0.83333276  0.83333136  0.38480096
   0.00006969  0.16675125  0.44738393
  -0.00053563  0.50008321  0.44721689
   0.00000802  0.83329707  0.44736346
   0.33330419  0.16658213  0.44732482
   0.33437223  0.50031074  0.44723559
   0.33331799  0.83327342  0.44736479
   0.66665446  0.16666308  0.44735667
   0.66662857  0.49998472  0.44735875
   0.66665146  0.83332134  0.44734616
   0.16668095  0.00000564  0.44736261
   0.16562250  0.33181881  0.44697822
   0.16648290  0.66742607  0.44720815
   0.49999973  0.00000907  0.44735031
   0.50035589  0.33317777  0.44725907
   0.49994419  0.66664216  0.44736484
   0.83334666  0.00001500  0.44734622
   0.83337175  0.33335190  0.44736682
   0.83335174  0.66666638  0.44736403
   0.25112369  0.40887327  0.50176263
   0.24948677  0.49364118  0.50230404
Direct configuration=     3
   0.00000000  0.00000000  0.00000000
   0.00000000  0.33333333  0.00000000
   0.00000000  0.66666667  0.00000000
   0.33333333  0.00000000  0.00000000
   0.33333333  0.33333333  0.00000000
   0.33333333  0.66666667  0.00000000
   0.66666667  0.00000000  0.00000000
   0.66666667  0.33333333  0.00000000
   0.66666667  0.66666667  0.00000000
   0.16666667  0.16666667  0.00000000
   0.16666667  0.50000000  0.00000000
   0.16666667  0.83333333  0.00000000
   0.50000000  0.16666667  0.00000000
   0.50000000  0.50000000  0.00000000
   0.50000000  0.83333333  0.00000000
   0.83333333  0.16666667  0.00000000
   0.83333333  0.50000000  0.00000000
   0.83333333  0.83333333  0.00000000
   0.00000000  0.16666667  0.06551164
   0.00000000  0.50000000  0.06551164
   0.00000000  0.83333333  0.06551164
   0.33333333  0.16666667  0.06551164
   0.33333333  0.50000000  0.06551164
   0.33333333  0.83333333  0.06551164
   0.66666667  0.16666667  0.06551164
   0.66666667  0.50000000  0.06551164
   0.66666667  0.83333333  0.06551164
   0.16666667  0.00000000  0.06551164
   0.16666667  0.33333333  0.06551164
   0.16666667  0.66666667  0.06551164
   0.50000000  0.00000000  0.06551164
   0.50000000  0.33333333  0.06551164
   0.50000000  0.66666667  0.06551164
   0.83333333  0.00000000  0.06551164
   0.83333333  0.33333333  0.06551164
   0.83333333  0.66666667  0.06551164
   0.00000000  0.00000000  0.13119553
   0.00000000  0.33333333  0.13119553
   0.00000000  0.66666667  0.13119553
   0.33333333  0.00000000  0.13119553
   0.33333333  0.33333333  0.13119553
   0.33333333  0.66666667  0.13119553
   0.66666667  0.00000000  0.13119553
   0.66666667  0.33333333  0.13119553
   0.66666667  0.66666667  0.13119553
   0.16666667  0.16666667  0.13119553
   0.16666667  0.50000000  0.13119553
   0.16666667  0.83333333  0.13119553
   0.50000000  0.16666667  0.13119553
   0.50000000  0.50000000  0.13119553
   0.50000000  0.83333333  0.13119553
   0.83333333  0.16666667  0.13119553
   0.83333333  0.50000000  0.13119553
   0.83333333  0.83333333  0.13119553
   0.00000623  0.16667914  0.19594431
   0.00000901  0.50000101  0.19594652
   0.00000006  0.83331851  0.19593385
   0.33333450  0.16667772  0.19595166
   0.33332377  0.49999653  0.19592702
   0.33333228  0.83332472  0.19593897
   0.66665583  0.16666301  0.19593208
   0.66665722  0.49999946  0.19593522
   0.66666718  0.83333834  0.19593253
   0.16667064  0.00000325  0.19592677
   0.16666969  0.33333748  0.19593201
   0.16666533  0.66666053  0.19594612
   0.50000197  0.00000729  0.19592716
   0.49999369  0.33332969  0.19594652
   0.49999337  0.66666427  0.19594786
   0.83332700 -0.00000314  0.19593299
   0.83334520  0.33333489  0.19593044
   0.83334747  0.66666736  0.19593028
   0.00000876 -0.00000424  0.25871040
   0.00000269  0.33332506  0.25871005
   0.00000035  0.66667305  0.25870557
   0.33332712 -0.00003046  0.25869907
   0.33333309  0.33334038  0.25874200
   0.33333771  0.66666102  0.25872140
   0.66666091  0.00000351  0.25870901
   0.66670421  0.33333283  0.25869651
   0.66668117  0.66666559  0.25870518
   0.16665825  0.16665849  0.25869730
   0.16667199  0.49999548  0.25874020
   0.16666259  0.83337492  0.25869172
   0.50000236  0.16666652  0.25870171
   0.49999359  0.50000183  0.25871563
   0.49999884  0.83333900  0.25870322
   0.83333193  0.16667256  0.25870887
   0.83328706  0.49999866  0.25869289
   0.83333817  0.83332570  0.25870862
  -0.00001453  0.16665749  0.32125485
  -0.00003076  0.50001042  0.32122468
  -0.00000206  0.83331161  0.32125501
   0.33334736  0.16664530  0.32124235
   0.33331408  0.49999026  0.32125292
   0.33333987  0.83328571  0.32126591
   0.66664448  0.16666876  0.32125154
   0.66660709  0.50000240  0.32126467
   0.66665638  0.83332956  0.32125168
   0.16666463  0.00003981  0.32125970
   0.16667192  0.33333578  0.32123928
   0.16665317  0.66669708  0.32122492
   0.50000267  0.00002132  0.32124753
   0.50003682  0.33330996  0.32122629
   0.50003351  0.66669626  0.32123944
   0.83333078  0.00000093  0.32125153
   0.83337457  0.33333058  0.32126110
   0.83336117  0.66666697  0.32125467
   0.00000241 -0.00000956  0.38478757
   0.00007623  0.33338297  0.38482840
   0.00003769  0.66663891  0.38481473
   0.33333794 -0.00005059  0.38478960
   0.33338799  0.33328348  0.38467608
   0.33330962  0.66653572  0.38483608
   0.66666221  0.00000197  0.38478769
   0.66672632  0.33333076  0.38478694
   0.66669255  0.66667106  0.38478659
   0.16669369  0.16671844  0.38481978
   0.16652391  0.50006784  0.38458557
   0.16666589  0.83340214  0.38478176
   0.49999267  0.16666814  0.38479660
   0.49984223  0.49997465  0.38484667
   0.50001018  0.83335226  0.38478104
   0.83332698  0.16666141  0.38478464
   0.83324696  0.50000380  0.38478024
   0.83333299  0.83333218  0.38478556
   0.00004088  0.16671628  0.44737599
  -0.00031418  0.50004881  0.44727801
   0.00000470  0.83331206  0.44736399
   0.33331624  0.16661708  0.44734132
   0.33394272  0.50018227  0.44728898
   0.33332433  0.83329819  0.44736476
   0.66665951  0.16666456  0.44736000
   0.66664432  0.49999104  0.44736122
   0.66665774  0.83332630  0.44735383
   0.16667504  0.00000331  0.44736348
   0.16605420  0.33244497  0.44713802
   0.16655887  0.66711211  0.44727288
   0.49999984  0.00000532  0.44735627
   0.50020875  0.33324209  0.44730275
   0.49996726  0.66665229  0.44736479
   0.83334115  0.00000880  0.44735387
   0.83335586  0.33334422  0.44736595
   0.83334413  0.66666650  0.44736432
   0.25065912  0.41209534  0.50165677
   0.24969896  0.49013884  0.50197434
Direct configuration=     4
   0.00000000  0.00000000  0.00000000
   0.00000000  0.33333333  0.00000000
   0.00000000  0.66666667  0.00000000
   0.33333333  0.00000000  0.00000000
   0.33333333  0.33333333  0.00000000
   0.33333333  0.66666667  0.00000000
   0.66666667  0.00000000  0.00000000
   0.66666667  0.33333333  0.00000000
   0.66666667  0.66666667  0.00000000
   0.16666667  0.16666667  0.00000000
   0.16666667  0.50000000  0.00000000
   0.16666667  0.83333333  0.00000000
   0.50000000  0.16666667  0.00000000
   0.50000000  0.50000000  0.00000000
   0.50000000  0.83333333  0.00000000
   0.83333333  0.16666667  0.00000000
   0.83333333  0.50000000  0.00000000
   0.83333333  0.83333333  0.00000000
   0.00000000  0.16666667  0.06551164
   0.00000000  0.50000000  0.06551164
   0.00000000  0.83333333  0.06551164
   0.33333333  0.16666667  0.06551164
   0.33333333  0.50000000  0.06551164
   0.33333333  0.83333333  0.06551164
   0.66666667  0.16666667  0.06551164
   0.66666667  0.50000000  0.06551164
   0.66666667  0.83333333  0.06551164
   0.16666667  0.00000000  0.06551164
   0.16666667  0.33333333  0.06551164
   0.16666667  0.66666667  0.06551164
   0.50000000  0.00000000  0.06551164
   0.50000000  0.33333333  0.06551164
   0.50000000  0.66666667  0.06551164
   0.83333333  0.00000000  0.06551164
   0.83333333  0.33333333  0.06551164
   0.83333333  0.66666667  0.06551164
   0.00000000  0.00000000  0.13119553
   0.00000000  0.33333333  0.13119553
   0.00000000  0.66666667  0.13119553
   0.33333333  0.00000000  0.13119553
   0.33333333  0.33333333  0.13119553
   0.33333333  0.66666667  0.13119553
   0.66666667  0.00000000  0.13119553
   0.66666667  0.33333333  0.13119553
   0.66666667  0.66666667  0.13119553
   0.16666667  0.16666667  0.13119553
   0.16666667  0.50000000  0.13119553
   0.16666667  0.83333333  0.13119553
   0.50000000  0.16666667  0.13119553
   0.50000000  0.50000000  0.13119553
   0.50000000  0.83333333  0.13119553
   0.83333333  0.16666667  0.13119553
   0.83333333  0.50000000  0.13119553
   0.83333333  0.83333333  0.13119553
   0.00001447  0.16669915  0.19554933
   0.00003061  0.50000201  0.19555685
  -0.00000145  0.83329593  0.19552232
   0.33333660  0.16670303  0.19557159
   0.33330481  0.49998909  0.19550880
   0.33333224  0.83330567  0.19553647
   0.66663976  0.16665587  0.19551814
   0.66663422  0.50000036  0.19552630
   0.66666825  0.83334635  0.19551943
   0.16667558  0.00001068  0.19550265
   0.16667968  0.33334941  0.19552049
   0.16666646  0.66664236  0.19555694
   0.50000466  0.00001866  0.19550514
   0.49997657  0.33332611  0.19555629
   0.49997981  0.66665768  0.19555916
   0.83331894 -0.00000730  0.19552098
   0.83337040  0.33333479  0.19551353
   0.83337185  0.66666963  0.19551374
   0.00002235 -0.00001204  0.25862929
   0.00000742  0.33331131  0.25863083
  -0.00000127  0.66668581  0.25861711
   0.33331656 -0.00008363  0.25860190
   0.33333164  0.33335413  0.25871081
   0.33334527  0.66665262  0.25865859
   0.66665302  0.00000869  0.25862526
   0.66677204  0.33333282  0.25859277
   0.66671002  0.66666427  0.25861531
   0.16664476  0.16664390  0.25859522
   0.16668207  0.49998495  0.25870362
   0.16665766  0.83344688  0.25858149
   0.50000666  0.16666262  0.25860565
   0.49998020  0.50000424  0.25864522
   0.49999605  0.83335169  0.25860993
   0.83332841  0.16668084  0.25862538
   0.83320561  0.49999612  0.25858403
   0.83334527  0.83331427  0.25862454
  -0.00003465  0.16664725  0.32133589
  -0.00012403  0.50002769  0.32124506
  -0.00000586  0.83327821  0.32133296
   0.33336733  0.16658485  0.32129870
   0.33330865  0.49999372  0.32132906
   0.33334945  0.83320621  0.32136402
   0.66661185  0.16667386  0.32132402
   0.66650304  0.50000459  0.32135998
   0.66664306  0.83332596  0.32132363
   0.16666269  0.00010665  0.32134358
   0.16666130  0.33330497  0.32128963
   0.16663258  0.66678391  0.32125204
   0.50000647  0.00005389  0.32131218
   0.50012385  0.33327382  0.32125605
   0.50008630  0.66673764  0.32129872
   0.83332623  0.00000014  0.32132417
   0.83344314  0.33332816  0.32134876
   0.83340654  0.66666617  0.32133264
   0.00000645 -0.00001709  0.38483630
   0.00014309  0.33346247  0.38491224
   0.00008685  0.66660649  0.38489546
   0.33334615 -0.00012833  0.38484076
   0.33347664  0.33321705  0.38453311
   0.33327264  0.66634917  0.38494287
   0.66665749  0.00000533  0.38483431
   0.66683015  0.33332711  0.38482741
   0.66672265  0.66667490  0.38483374
   0.16673473  0.16672373  0.38488318
   0.16630667  0.50016546  0.38430820
   0.16666685  0.83353040  0.38480769
   0.49998131  0.16665808  0.38485271
   0.49963076  0.49993044  0.38496427
   0.50002269  0.83337346  0.38481713
   0.83332441  0.16665347  0.38482825
   0.83309083  0.50001120  0.38480689
   0.83333368  0.83333134  0.38482887
   0.00004739  0.16673535  0.44740426
  -0.00080524  0.50013847  0.44713970
  -0.00000435  0.83329710  0.44737093
   0.33329936  0.16654986  0.44731689
   0.33431871  0.50017534  0.44751545
   0.33332640  0.83325945  0.44737376
   0.66665885  0.16665249  0.44736121
   0.66661032  0.49998174  0.44736408
   0.66664040  0.83331258  0.44734358
   0.16668340  0.00000104  0.44737173
   0.16535247  0.33130355  0.44692747
   0.16644120  0.66771523  0.44716579
   0.49999961  0.00001122  0.44735024
   0.50056526  0.33306026  0.44720686
   0.49995160  0.66667088  0.44737542
   0.83335647  0.00002446  0.44734363
   0.83338251  0.33335196  0.44737733
   0.83334740  0.66667757  0.44737337
   0.25176006  0.41287434  0.50168969
   0.24945290  0.49017207  0.50250268
Direct configuration=     5
   0.00000000  0.00000000  0.00000000
   0.00000000  0.33333333  0.00000000
   0.00000000  0.66666667  0.00000000
   0.33333333  0.00000000  0.00000000
   0.33333333  0.33333333  0.00000000
   0.33333333  0.66666667  0.00000000
   0.66666667  0.00000000  0.00000000
   0.66666667  0.33333333  0.00000000
   0.66666667  0.66666667  0.00000000
   0.16666667  0.16666667  0.00000000
   0.16666667  0.50000000  0.00000000
   0.16666667  0.83333333  0.00000000
   0.50000000  0.16666667  0.00000000
   0.50000000  0.50000000  0.00000000
   0.50000000  0.83333333  0.00000000
   0.83333333  0.16666667  0.00000000
   0.83333333  0.50000000  0.00000000
   0.83333333  0.83333333  0.00000000
   0.00000000  0.16666667  0.06551164
   0.00000000  0.50000000  0.06551164
   0.00000000  0.83333333  0.06551164
   0.33333333  0.16666667  0.06551164
   0.33333333  0.50000000  0.06551164
   0.33333333  0.83333333  0.06551164
   0.66666667  0.16666667  0.06551164
   0.66666667  0.50000000  0.06551164
   0.66666667  0.83333333  0.06551164
   0.16666667  0.00000000  0.06551164
   0.16666667  0.33333333  0.06551164
   0.16666667  0.66666667  0.06551164
   0.50000000  0.00000000  0.06551164
   0.50000000  0.33333333  0.06551164
   0.50000000  0.66666667  0.06551164
   0.83333333  0.00000000  0.06551164
   0.83333333  0.33333333  0.06551164
   0.83333333  0.66666667  0.06551164
   0.00000000  0.00000000  0.13119553
   0.00000000  0.33333333  0.13119553
   0.00000000  0.66666667  0.13119553
   0.33333333  0.00000000  0.13119553
   0.33333333  0.33333333  0.13119553
   0.33333333  0.66666667  0.13119553
   0.66666667  0.00000000  0.13119553
   0.66666667  0.33333333  0.13119553
   0.66666667  0.66666667  0.13119553
   0.16666667  0.16666667  0.13119553
   0.16666667  0.50000000  0.13119553
   0.16666667  0.83333333  0.13119553
   0.50000000  0.16666667  0.13119553
   0.50000000  0.50000000  0.13119553
   0.50000000  0.83333333  0.13119553
   0.83333333  0.16666667  0.13119553
   0.83333333  0.50000000  0.13119553
   0.83333333  0.83333333  0.13119553
   0.00002792  0.16673180  0.19490509
   0.00006584  0.50000363  0.19492128
  -0.00000392  0.83325910  0.19485111
   0.33334003  0.16674431  0.19495167
   0.33327387  0.49997697  0.19482667
   0.33333219  0.83327461  0.19487997
   0.66661355  0.16664422  0.19484299
   0.66659671  0.50000183  0.19485934
   0.66667000  0.83335941  0.19484565
   0.16668362  0.00002279  0.19481088
   0.16669598  0.33336886  0.19484926
   0.16666831  0.66661271  0.19492218
   0.50000905  0.00003720  0.19481680
   0.49994865  0.33332028  0.19491981
   0.49995769  0.66664694  0.19492518
   0.83330580 -0.00001409  0.19484897
   0.83341149  0.33333462  0.19483353
   0.83341161  0.66667333  0.19483434
   0.00004453 -0.00002476  0.25849701
   0.00001513  0.33328888  0.25850162
  -0.00000393  0.66670663  0.25847282
   0.33329933 -0.00017034  0.25844340
   0.33332927  0.33337656  0.25865994
   0.33335761  0.66663893  0.25855614
   0.66664015  0.00001714  0.25848864
   0.66688268  0.33333282  0.25842356
   0.66675707  0.66666212  0.25846874
   0.16662276  0.16662009  0.25842873
   0.16669850  0.49996777  0.25864397
   0.16664961  0.83356425  0.25840170
   0.50001366  0.16665625  0.25844899
   0.49995837  0.50000816  0.25853038
   0.49999149  0.83337238  0.25845777
   0.83332267  0.16669434  0.25848921
   0.83307276  0.49999196  0.25840647
   0.83335684  0.83329563  0.25848741
  -0.00006747  0.16663054  0.32146809
  -0.00027617  0.50005584  0.32127828
  -0.00001204  0.83322373  0.32146012
   0.33339992  0.16648625  0.32139060
   0.33329978  0.49999936  0.32145326
   0.33336506  0.83307654  0.32152405
   0.66655862  0.16668218  0.32144224
   0.66633333  0.50000816  0.32151543
   0.66662134  0.83332009  0.32144097
   0.16665954  0.00021566  0.32148040
   0.16664398  0.33325473  0.32137174
   0.16659900  0.66692553  0.32129628
   0.50001266  0.00010700  0.32141761
   0.50026579  0.33321488  0.32130459
   0.50017239  0.66680512  0.32139542
   0.83331880 -0.00000114  0.32144265
   0.83355498  0.33332422  0.32149174
   0.83348056  0.66666486  0.32145981
   0.00001303 -0.00002938  0.38491578
   0.00025215  0.33359215  0.38504899
   0.00016702  0.66655361  0.38502713
   0.33335954 -0.00025514  0.38492422
   0.33362125  0.33310868  0.38429992
   0.33321233  0.66604490  0.38511704
   0.66664978  0.00001080  0.38491034
   0.66699951  0.33332116  0.38489344
   0.66677176  0.66668118  0.38491063
   0.16680166  0.16673234  0.38498660
   0.16595234  0.50032470  0.38385580
   0.16666843  0.83373960  0.38484997
   0.49996278  0.16664167  0.38494422
   0.49928583  0.49985834  0.38515607
   0.50004310  0.83340803  0.38487600
   0.83332021  0.16664053  0.38489939
   0.83283617  0.50002328  0.38485035
   0.83333480  0.83332998  0.38489951
   0.00005801  0.16676645  0.44745036
  -0.00160620  0.50028472  0.44691410
  -0.00001913  0.83327268  0.44738226
   0.33327183  0.16644022  0.44727705
   0.33493197  0.50016403  0.44788484
   0.33332979  0.83319626  0.44738843
   0.66665777  0.16663279  0.44736317
   0.66655487  0.49996656  0.44736875
   0.66661211  0.83329020  0.44732686
   0.16669704 -0.00000266  0.44738519
   0.16420791  0.32944182  0.44658406
   0.16624926  0.66869895  0.44699112
   0.49999924  0.00002085  0.44734040
   0.50114675  0.33276369  0.44705045
   0.49992604  0.66670121  0.44739275
   0.83338145  0.00005000  0.44732693
   0.83342597  0.33336458  0.44739590
   0.83335274  0.66669563  0.44738813
   0.25355576  0.41414493  0.50174339
   0.24905156  0.49022628  0.50336444
Direct configuration=     6
   0.00000000  0.00000000  0.00000000
   0.00000000  0.33333333  0.00000000
   0.00000000  0.66666667  0.00000000
   0.33333333  0.00000000  0.00000000
   0.33333333  0.33333333  0.00000000
   0.33333333  0.66666667  0.00000000
   0.66666667  0.00000000  0.00000000
   0.66666667  0.33333333  0.00000000
   0.66666667  0.66666667  0.00000000
   0.16666667  0.16666667  0.00000000
   0.16666667  0.50000000  0.00000000
   0.16666667  0.83333333  0.00000000
   0.50000000  0.16666667  0.00000000
   0.50000000  0.50000000  0.00000000
   0.50000000  0.83333333  0.00000000
   0.83333333  0.16666667  0.00000000
   0.83333333  0.50000000  0.00000000
   0.83333333  0.83333333  0.00000000
   0.00000000  0.16666667  0.06551164
   0.00000000  0.50000000  0.06551164
   0.00000000  0.83333333  0.06551164
   0.33333333  0.16666667  0.06551164
   0.33333333  0.50000000  0.06551164
   0.33333333  0.83333333  0.06551164
   0.66666667  0.16666667  0.06551164
   0.66666667  0.50000000  0.06551164
   0.66666667  0.83333333  0.06551164
   0.16666667  0.00000000  0.06551164
   0.16666667  0.33333333  0.06551164
   0.16666667  0.66666667  0.06551164
   0.50000000  0.00000000  0.06551164
   0.50000000  0.33333333  0.06551164
   0.50000000  0.66666667  0.06551164
   0.83333333  0.00000000  0.06551164
   0.83333333  0.33333333  0.06551164
   0.83333333  0.66666667  0.06551164
   0.00000000  0.00000000  0.13119553
   0.00000000  0.33333333  0.13119553
   0.00000000  0.66666667  0.13119553
   0.33333333  0.00000000  0.13119553
   0.33333333  0.33333333  0.13119553
   0.33333333  0.66666667  0.13119553
   0.66666667  0.00000000  0.13119553
   0.66666667  0.33333333  0.13119553
   0.66666667  0.66666667  0.13119553
   0.16666667  0.16666667  0.13119553
   0.16666667  0.50000000  0.13119553
   0.16666667  0.83333333  0.13119553
   0.50000000  0.16666667  0.13119553
   0.50000000  0.50000000  0.13119553