unknown system                          
           1
     5.133595    0.000000    0.000000
     2.566798    4.445824    0.000000
     0.000000    0.000000   23.383125
   Cu
    20
Direct configuration=     1
   0.00000000  0.00000000  0.00000000
   0.00000000  0.50000000  0.00000000
   0.50000000  0.00000000  0.00000000
   0.50000000  0.50000000  0.00000000
   0.16666667  0.16666667  0.08962794
   0.16666667  0.66666667  0.08962794
   0.66666667  0.16666667  0.08962794
   0.66666667  0.66666667  0.08962794
   0.33333333  0.33333333  0.17925589
   0.33333333  0.83333333  0.17925589
   0.83333333  0.33333333  0.17925589
   0.83333333  0.83333333  0.17925589
   0.00000000  0.00000000  0.26888383
   0.00000000  0.50000000  0.26888383
   0.50000000  0.00000000  0.26888383
   0.50000000  0.50000000  0.26888383
   0.16666667  0.16666667  0.35851178
   0.16666667  0.66666667  0.35851178
   0.66666667  0.16666667  0.35851178
   0.66666667  0.66666667  0.35851178
Direct configuration=     2
   0.00000000  0.00000000  0.00000000
   0.00000000  0.50000000  0.00000000
   0.50000000  0.00000000  0.00000000
   0.50000000  0.50000000  0.00000000
   0.16666667  0.16666667  0.08962794
   0.16666667  0.66666667  0.08962794
   0.66666667  0.16666667  0.08962794
   0.66666667  0.66666667  0.08962794
   0.33333333  0.33333333  0.17925688
   0.33333333  0.83333333  0.17925688
   0.83333333  0.33333333  0.17925688
   0.83333333  0.83333333  0.17925688
   0.00000000  0.00000000  0.26846229
   0.00000000  0.50000000  0.26846229
   0.50000000  0.00000000  0.26846229
   0.50000000  0.50000000  0.26846229
   0.16666667  0.16666667  0.35813490
   0.16666667  0.66666667  0.35813490
   0.66666667  0.16666667  0.35813490
   0.66666667  0.66666667  0.35813490
Direct configuration=     3
   0.00000000  0.00000000  0.00000000
   0.00000000  0.50000000  0.00000000
   0.50000000  0.00000000  0.00000000
   0.50000000  0.50000000  0.00000000
   0.16666667  0.16666667  0.08962794
   0.16666667  0.66666667  0.08962794
   0.66666667  0.16666667  0.08962794
   0.66666667  0.66666667  0.08962794
   0.33333333  0.33333333  0.17925985
   0.33333333  0.83333333  0.17925985
   0.83333333  0.33333333  0.17925985
   0.83333333  0.83333333  0.17925985
   0.00000000  0.00000000  0.26719764
   0.00000000  0.50000000  0.26719764
   0.50000000  0.00000000  0.26719764
   0.50000000  0.50000000  0.26719764
   0.16666667  0.16666667  0.35700425
   0.16666667  0.66666667  0.35700425
   0.66666667  0.16666667  0.35700425
   0.66666667  0.66666667  0.35700425
Direct configuration=     4
   0.00000000  0.00000000  0.00000000
   0.00000000  0.50000000  0.00000000
   0.50000000  0.00000000  0.00000000
   0.50000000  0.50000000  0.00000000
   0.16666667  0.16666667  0.08962794
   0.16666667  0.66666667  0.08962794
   0.66666667  0.16666667  0.08962794
   0.66666667  0.66666667  0.08962794
   0.33333333  0.33333333  0.17926580
   0.33333333  0.83333333  0.17926580
   0.83333333  0.33333333  0.17926580
   0.83333333  0.83333333  0.17926580
   0.00000000  0.00000000  0.26466836
   0.00000000  0.50000000  0.26466836
   0.50000000  0.00000000  0.26466836
   0.50000000  0.50000000  0.26466836
   0.16666667  0.16666667  0.35474297
   0.16666667  0.66666667  0.35474297
   0.66666667  0.16666667  0.35474297
   0.66666667  0.66666667  0.35474297
Direct configuration=     5
   0.00000000  0.00000000  0.00000000
   0.00000000  0.50000000  0.00000000
   0.50000000  0.00000000  0.00000000
   0.50000000  0.50000000  0.00000000
   0.16666667  0.16666667  0.08962794
   0.16666667  0.66666667  0.08962794
   0.66666667  0.16666667  0.08962794
   0.66666667  0.66666667  0.08962794
   0.33333333  0.33333333  0.17926420
   0.33333333  0.83333333  0.17926420
   0.83333333  0.33333333  0.17926420
   0.83333333  0.83333333  0.17926420
   0.00000000  0.00000000  0.26534650
   0.00000000  0.50000000  0.26534650
   0.50000000  0.00000000  0.26534650
   0.50000000  0.50000000  0.26534650
   0.16666667  0.16666667  0.35534926
   0.16666667  0.66666667  0.35534926
   0.66666667  0.16666667  0.35534926
   0.66666667  0.66666667  0.35534926
Direct configuration=     6
   0.00000000  0.00000000  0.00000000
   0.00000000  0.50000000  0.00000000
   0.50000000  0.00000000  0.00000000
   0.50000000  0.50000000  0.00000000
   0.16666667  0.16666667  0.08962794
   0.16666667  0.66666667  0.08962794
   0.66666667  0.16666667  0.08962794
   0.66666667  0.66666667  0.08962794
   0.33333333  0.33333333  0.17907540
   0.33333333  0.83333333  0.17907540
   0.83333333  0.33333333  0.17907540
   0.83333333  0.83333333  0.17907540
   0.00000000  0.00000000  0.26515594
   0.00000000  0.50000000  0.26515594
   0.50000000  0.00000000  0.26515594
   0.50000000  0.50000000  0.26515594
   0.16666667  0.16666667  0.35497712
   0.16666667  0.66666667  0.35497712
   0.66666667  0.16666667  0.35497712
   0.66666667  0.66666667  0.35497712
Direct configuration=     7
   0.00000000  0.00000000  0.00000000
   0.00000000  0.50000000  0.00000000
   0.50000000  0.00000000  0.00000000
   0.50000000  0.50000000  0.00000000
   0.16666667  0.16666667  0.08962794
   0.16666667  0.66666667  0.08962794
   0.66666667  0.16666667  0.08962794
   0.66666667  0.66666667  0.08962794
   0.33333333  0.33333333  0.17850901
   0.33333333  0.83333333  0.17850901
   0.83333333  0.33333333  0.17850901
   0.83333333  0.83333333  0.17850901
   0.00000000  0.00000000  0.26458425
   0.00000000  0.50000000  0.26458425
   0.50000000  0.00000000  0.26458425
   0.50000000  0.50000000  0.26458425
   0.16666667  0.16666667  0.35386071
   0.16666667  0.66666667  0.35386071
   0.66666667  0.16666667  0.35386071
   0.66666667  0.66666667  0.35386071
Direct configuration=     8
   0.00000000  0.00000000  0.00000000
   0.00000000  0.50000000  0.00000000
   0.50000000  0.00000000  0.00000000
   0.50000000  0.50000000  0.00000000
   0.16666667  0.16666667  0.08962794
   0.16666667  0.66666667  0.08962794
   0.66666667  0.16666667  0.08962794
   0.66666667  0.66666667  0.08962794
   0.33333333  0.33333333  0.17737621
   0.33333333  0.83333333  0.17737621
   0.83333333  0.33333333  0.17737621
   0.83333333  0.83333333  0.17737621
   0.00000000 -0.00000000  0.26344088
   0.00000000  0.50000000  0.26344088
   0.50000000 -0.00000000  0.26344088
   0.50000000  0.50000000  0.26344088
   0.16666667  0.16666667  0.35162788
   0.16666667  0.66666667  0.35162788
   0.66666667  0.16666667  0.35162788
   0.66666667  0.66666667  0.35162788
Direct configuration=     9
   0.00000000  0.00000000  0.00000000
   0.00000000  0.50000000  0.00000000
   0.50000000  0.00000000  0.00000000
   0.50000000  0.50000000  0.00000000
   0.16666667  0.16666667  0.08962794
   0.16666667  0.66666667  0.08962794
   0.66666667  0.16666667  0.08962794
   0.66666667  0.66666667  0.08962794
   0.33333333  0.33333333  0.17511062
   0.33333333  0.83333333  0.17511062
   0.83333333  0.33333333  0.17511062
   0.83333333  0.83333333  0.17511062
   0.00000000 -0.00000000  0.26115415
   0.00000000  0.50000000  0.26115415
   0.50000000 -0.00000000  0.26115415
   0.50000000  0.50000000  0.26115415
   0.16666667  0.16666667  0.34716223
   0.16666667  0.66666667  0.34716223
   0.66666667  0.16666667  0.34716223
   0.66666667  0.66666667  0.34716223
Direct configuration=    10
   0.00000000  0.00000000  0.00000000
   0.00000000  0.50000000  0.00000000
   0.50000000  0.00000000  0.00000000
   0.50000000  0.50000000  0.00000000
   0.16666667  0.16666667  0.08962794
   0.16666667  0.66666667  0.08962794
   0.66666667  0.16666667  0.08962794
   0.66666667  0.66666667  0.08962794
   0.33333333  0.33333333  0.17610760
   0.33333333  0.83333333  0.17610760
   0.83333333  0.33333333  0.17610760
   0.83333333  0.83333333  0.17610760
   0.00000000 -0.00000000  0.26216043
   0.00000000  0.50000000  0.26216043
   0.50000000 -0.00000000  0.26216043
   0.50000000  0.50000000  0.26216043
   0.16666667  0.16666667  0.34912735
   0.16666667  0.66666667  0.34912735
   0.66666667  0.16666667  0.34912735
   0.66666667  0.66666667  0.34912735
Direct configuration=    11
   0.00000000  0.00000000  0.00000000
   0.00000000  0.50000000  0.00000000
   0.50000000  0.00000000  0.00000000
   0.50000000  0.50000000  0.00000000
   0.16666667  0.16666667  0.08962794
   0.16666667  0.66666667  0.08962794
   0.66666667  0.16666667  0.08962794
   0.66666667  0.66666667  0.08962794
   0.33333333  0.33333333  0.17595345
   0.33333333  0.83333333  0.17595345
   0.83333333  0.33333333  0.17595345
   0.83333333  0.83333333  0.17595345
   0.00000000 -0.00000000  0.26200484
   0.00000000  0.50000000  0.26200484
   0.50000000 -0.00000000  0.26200484
   0.50000000  0.50000000  0.26200484
   0.16666667  0.16666667  0.34882352
   0.16666667  0.66666667  0.34882352
   0.66666667  0.16666667  0.34882352
   0.66666667  0.66666667  0.34882352
Direct configuration=    12
   0.00000000  0.00000000  0.00000000
   0.00000000  0.50000000  0.00000000
   0.50000000  0.00000000  0.00000000
   0.50000000  0.50000000  0.00000000
   0.16666667  0.16666667  0.08962794
   0.16666667  0.66666667  0.08962794
   0.66666667  0.16666667  0.08962794
   0.66666667  0.66666667  0.08962794
   0.33333333  0.33333333  0.17580403
   0.33333333  0.83333333  0.17580403
   0.83333333  0.33333333  0.17580403
   0.83333333  0.83333333  0.17580403
   0.00000000 -0.00000000  0.26174741
   0.00000000  0.50000000  0.26174741
   0.50000000 -0.00000000  0.26174741
   0.50000000  0.50000000  0.26174741
   0.16666667  0.16666667  0.34875704
   0.16666667  0.66666667  0.34875704
   0.66666667  0.16666667  0.34875704
   0.66666667  0.66666667  0.34875704
Direct configuration=    13
   0.00000000  0.00000000  0.00000000
   0.00000000  0.50000000  0.00000000
   0.50000000  0.00000000  0.00000000
   0.50000000  0.50000000  0.00000000
   0.16666667  0.16666667  0.08962794
   0.16666667  0.66666667  0.08962794
   0.66666667  0.16666667  0.08962794
   0.66666667  0.66666667  0.08962794
   0.33333333  0.33333333  0.17551653
   0.33333333  0.83333333  0.17551653
   0.83333333  0.33333333  0.17551653
   0.83333333  0.83333333  0.17551653
   0.00000000 -0.00000000  0.26125209
   0.00000000  0.50000000  0.26125209
   0.50000000 -0.00000000  0.26125209
   0.50000000  0.50000000  0.26125209
   0.16666667  0.16666667  0.34862915
   0.16666667  0.66666667  0.34862915
   0.66666667  0.16666667  0.34862915
   0.66666667  0.66666667  0.34862915
