  66  66   0   0
  0.2212521E+02  0.7260000E-09  0.7260000E-09  0.2770500E-08  0.5000000E-15
  1.000000000000000E-004
  CAR 
 unknown system                          
     13.35317045     -9.53123567  301      1.88328313      1.00000000
     -9.531  0.0000E+00  0.0000E+00  0.0000E+00  0.0000E+00
     -9.455  0.0000E+00  0.0000E+00  0.0000E+00  0.0000E+00
     -9.379  0.0000E+00  0.0000E+00  0.0000E+00  0.0000E+00
     -9.302  0.0000E+00  0.0000E+00  0.0000E+00  0.0000E+00
     -9.226  0.0000E+00  0.0000E+00  0.0000E+00  0.0000E+00
     -9.150 -0.1493E-30 -0.1493E-30 -0.1139E-31 -0.1139E-31
     -9.074 -0.5888E-28 -0.5888E-28 -0.4503E-29 -0.4503E-29
     -8.997 -0.1734E-25 -0.1734E-25 -0.1328E-26 -0.1328E-26
     -8.921 -0.3807E-23 -0.3807E-23 -0.2918E-24 -0.2918E-24
     -8.845 -0.6227E-21 -0.6227E-21 -0.4779E-22 -0.4779E-22
     -8.768 -0.7583E-19 -0.7583E-19 -0.5833E-20 -0.5833E-20
     -8.692 -0.6671E-17 -0.6671E-17 -0.5147E-18 -0.5147E-18
     -8.616 -0.4476E-15 -0.4476E-15 -0.3466E-16 -0.3466E-16
     -8.540 -0.2229E-13 -0.2229E-13 -0.1735E-14 -0.1735E-14
     -8.463 -0.8222E-12 -0.8222E-12 -0.6446E-13 -0.6446E-13
     -8.387 -0.2242E-10 -0.2242E-10 -0.1775E-11 -0.1775E-11
     -8.311 -0.4506E-09 -0.4506E-09 -0.3615E-10 -0.3615E-10
     -8.234 -0.6644E-08 -0.6644E-08 -0.5429E-09 -0.5429E-09
     -8.158 -0.7140E-07 -0.7140E-07 -0.5989E-08 -0.5989E-08
     -8.082 -0.5533E-06 -0.5533E-06 -0.4819E-07 -0.4819E-07
     -8.006 -0.3035E-05 -0.3035E-05 -0.2797E-06 -0.2797E-06
     -7.929 -0.1135E-04 -0.1135E-04 -0.1146E-05 -0.1146E-05
     -7.853 -0.2636E-04 -0.2636E-04 -0.3156E-05 -0.3156E-05
     -7.777 -0.2446E-04 -0.2446E-04 -0.5022E-05 -0.5022E-05
     -7.700  0.5576E-04  0.5576E-04 -0.7688E-06 -0.7688E-06
     -7.624  0.2442E-03  0.2442E-03  0.1786E-04  0.1786E-04
     -7.548  0.4251E-03  0.4251E-03  0.5028E-04  0.5028E-04
     -7.472  0.4442E-03  0.4442E-03  0.8417E-04  0.8417E-04
     -7.395  0.4527E-03  0.4527E-03  0.1187E-03  0.1187E-03
     -7.319  0.8625E-03  0.8625E-03  0.1845E-03  0.1845E-03
     -7.243  0.1659E-02  0.1659E-02  0.3111E-03  0.3111E-03
     -7.167  0.2159E-02  0.2159E-02  0.4757E-03  0.4757E-03
     -7.090  0.1989E-02  0.1989E-02  0.6274E-03  0.6274E-03
     -7.014  0.1766E-02  0.1766E-02  0.7622E-03  0.7622E-03
     -6.938  0.2094E-02  0.2094E-02  0.9219E-03  0.9219E-03
     -6.861  0.2588E-02  0.2588E-02  0.1119E-02  0.1119E-02
     -6.785  0.2683E-02  0.2683E-02  0.1324E-02  0.1324E-02
     -6.709  0.2524E-02  0.2524E-02  0.1517E-02  0.1517E-02
     -6.633  0.2300E-02  0.2300E-02  0.1692E-02  0.1692E-02
     -6.556  0.1813E-02  0.1813E-02  0.1830E-02  0.1830E-02
     -6.480  0.1374E-02  0.1374E-02  0.1935E-02  0.1935E-02
     -6.404  0.1842E-02  0.1842E-02  0.2076E-02  0.2076E-02
     -6.327  0.3181E-02  0.3181E-02  0.2318E-02  0.2318E-02
     -6.251  0.4086E-02  0.4086E-02  0.2630E-02  0.2630E-02
     -6.175  0.3683E-02  0.3683E-02  0.2911E-02  0.2911E-02
     -6.099  0.2888E-02  0.2888E-02  0.3131E-02  0.3131E-02
     -6.022  0.3289E-02  0.3289E-02  0.3382E-02  0.3382E-02
     -5.946  0.4940E-02  0.4940E-02  0.3759E-02  0.3759E-02
     -5.870  0.6242E-02  0.6242E-02  0.4235E-02  0.4235E-02
     -5.793  0.6034E-02  0.6034E-02  0.4695E-02  0.4695E-02
     -5.717  0.4815E-02  0.4815E-02  0.5063E-02  0.5063E-02
     -5.641  0.3954E-02  0.3954E-02  0.5364E-02  0.5364E-02
     -5.565  0.4376E-02  0.4376E-02  0.5698E-02  0.5698E-02
     -5.488  0.5605E-02  0.5605E-02  0.6126E-02  0.6126E-02
     -5.412  0.5934E-02  0.5934E-02  0.6578E-02  0.6578E-02
     -5.336  0.4379E-02  0.4379E-02  0.6912E-02  0.6912E-02
     -5.259  0.2161E-02  0.2161E-02  0.7077E-02  0.7077E-02
     -5.183  0.1292E-02  0.1292E-02  0.7176E-02  0.7176E-02
     -5.107  0.2194E-02  0.2194E-02  0.7343E-02  0.7343E-02
     -5.031  0.3721E-02  0.3721E-02  0.7627E-02  0.7627E-02
     -4.954  0.5131E-02  0.5131E-02  0.8018E-02  0.8018E-02
     -4.878  0.6862E-02  0.6862E-02  0.8542E-02  0.8542E-02
     -4.802  0.9258E-02  0.9258E-02  0.9248E-02  0.9248E-02
     -4.726  0.1180E-01  0.1180E-01  0.1015E-01  0.1015E-01
     -4.649  0.1367E-01  0.1367E-01  0.1119E-01  0.1119E-01
     -4.573  0.1395E-01  0.1395E-01  0.1225E-01  0.1225E-01
     -4.497  0.1198E-01  0.1198E-01  0.1317E-01  0.1317E-01
     -4.420  0.8513E-02  0.8513E-02  0.1382E-01  0.1382E-01
     -4.344  0.5419E-02  0.5419E-02  0.1423E-01  0.1423E-01
     -4.268  0.4182E-02  0.4182E-02  0.1455E-01  0.1455E-01
     -4.192  0.4968E-02  0.4968E-02  0.1493E-01  0.1493E-01
     -4.115  0.6595E-02  0.6595E-02  0.1543E-01  0.1543E-01
     -4.039  0.7829E-02  0.7829E-02  0.1603E-01  0.1603E-01
     -3.963  0.8884E-02  0.8884E-02  0.1671E-01  0.1671E-01
     -3.886  0.1039E-01  0.1039E-01  0.1750E-01  0.1750E-01
     -3.810  0.1205E-01  0.1205E-01  0.1842E-01  0.1842E-01
     -3.734  0.1374E-01  0.1374E-01  0.1947E-01  0.1947E-01
     -3.658  0.1570E-01  0.1570E-01  0.2066E-01  0.2066E-01
     -3.581  0.1719E-01  0.1719E-01  0.2198E-01  0.2198E-01
     -3.505  0.1717E-01  0.1717E-01  0.2329E-01  0.2329E-01
     -3.429  0.1580E-01  0.1580E-01  0.2449E-01  0.2449E-01
     -3.352  0.1415E-01  0.1415E-01  0.2557E-01  0.2557E-01
     -3.276  0.1416E-01  0.1416E-01  0.2665E-01  0.2665E-01
     -3.200  0.1876E-01  0.1876E-01  0.2808E-01  0.2808E-01
     -3.124  0.2927E-01  0.2927E-01  0.3032E-01  0.3032E-01
     -3.047  0.4156E-01  0.4156E-01  0.3349E-01  0.3349E-01
     -2.971  0.4780E-01  0.4780E-01  0.3713E-01  0.3713E-01
     -2.895  0.4504E-01  0.4504E-01  0.4057E-01  0.4057E-01
     -2.818  0.3995E-01  0.3995E-01  0.4362E-01  0.4362E-01
     -2.742  0.4095E-01  0.4095E-01  0.4674E-01  0.4674E-01
     -2.666  0.4824E-01  0.4824E-01  0.5042E-01  0.5042E-01
     -2.590  0.5629E-01  0.5629E-01  0.5471E-01  0.5471E-01
     -2.513  0.6429E-01  0.6429E-01  0.5962E-01  0.5962E-01
     -2.437  0.7689E-01  0.7689E-01  0.6548E-01  0.6548E-01
     -2.361  0.9317E-01  0.9317E-01  0.7259E-01  0.7259E-01
     -2.285  0.1019E+00  0.1019E+00  0.8036E-01  0.8036E-01
     -2.208  0.9402E-01  0.9402E-01  0.8753E-01  0.8753E-01
     -2.132  0.7633E-01  0.7633E-01  0.9335E-01  0.9335E-01
     -2.056  0.6452E-01  0.6452E-01  0.9828E-01  0.9828E-01
     -1.979  0.6633E-01  0.6633E-01  0.1033E+00  0.1033E+00
     -1.903  0.7695E-01  0.7695E-01  0.1092E+00  0.1092E+00
     -1.827  0.8746E-01  0.8746E-01  0.1159E+00  0.1159E+00
     -1.751  0.9244E-01  0.9244E-01  0.1229E+00  0.1229E+00
     -1.674  0.9237E-01  0.9237E-01  0.1300E+00  0.1300E+00
     -1.598  0.9275E-01  0.9275E-01  0.1370E+00  0.1370E+00
     -1.522  0.9923E-01  0.9923E-01  0.1446E+00  0.1446E+00
     -1.445  0.1118E+00  0.1118E+00  0.1532E+00  0.1532E+00
     -1.369  0.1248E+00  0.1248E+00  0.1627E+00  0.1627E+00
     -1.293  0.1325E+00  0.1325E+00  0.1728E+00  0.1728E+00
     -1.217  0.1353E+00  0.1353E+00  0.1831E+00  0.1831E+00
     -1.140  0.1369E+00  0.1369E+00  0.1935E+00  0.1935E+00
     -1.064  0.1366E+00  0.1366E+00  0.2040E+00  0.2040E+00
     -0.988  0.1314E+00  0.1314E+00  0.2140E+00  0.2140E+00
     -0.911  0.1236E+00  0.1236E+00  0.2234E+00  0.2234E+00
     -0.835  0.1177E+00  0.1177E+00  0.2324E+00  0.2324E+00
     -0.759  0.1157E+00  0.1157E+00  0.2412E+00  0.2412E+00
     -0.683  0.1199E+00  0.1199E+00  0.2504E+00  0.2504E+00
     -0.606  0.1315E+00  0.1315E+00  0.2604E+00  0.2604E+00
     -0.530  0.1438E+00  0.1438E+00  0.2714E+00  0.2714E+00
     -0.454  0.1482E+00  0.1482E+00  0.2827E+00  0.2827E+00
     -0.377  0.1455E+00  0.1455E+00  0.2938E+00  0.2938E+00
     -0.301  0.1427E+00  0.1427E+00  0.3046E+00  0.3046E+00
     -0.225  0.1428E+00  0.1428E+00  0.3155E+00  0.3155E+00
     -0.149  0.1443E+00  0.1443E+00  0.3265E+00  0.3265E+00
     -0.072  0.1495E+00  0.1495E+00  0.3379E+00  0.3379E+00
      0.004  0.1645E+00  0.1645E+00  0.3505E+00  0.3505E+00
      0.080  0.1876E+00  0.1876E+00  0.3648E+00  0.3648E+00
      0.156  0.2031E+00  0.2031E+00  0.3803E+00  0.3803E+00
      0.233  0.1940E+00  0.1940E+00  0.3951E+00  0.3951E+00
      0.309  0.1573E+00  0.1573E+00  0.4071E+00  0.4071E+00
      0.385  0.1060E+00  0.1060E+00  0.4152E+00  0.4152E+00
      0.462  0.5986E-01  0.5986E-01  0.4197E+00  0.4197E+00
      0.538  0.3152E-01  0.3152E-01  0.4222E+00  0.4222E+00
      0.614  0.1979E-01  0.1979E-01  0.4237E+00  0.4237E+00
      0.690  0.1694E-01  0.1694E-01  0.4250E+00  0.4250E+00
      0.767  0.1728E-01  0.1728E-01  0.4263E+00  0.4263E+00
      0.843  0.1810E-01  0.1810E-01  0.4277E+00  0.4277E+00
      0.919  0.1870E-01  0.1870E-01  0.4291E+00  0.4291E+00
      0.996  0.1964E-01  0.1964E-01  0.4306E+00  0.4306E+00
      1.072  0.1991E-01  0.1991E-01  0.4321E+00  0.4321E+00
      1.148  0.1735E-01  0.1735E-01  0.4334E+00  0.4334E+00
      1.224  0.1236E-01  0.1236E-01  0.4344E+00  0.4344E+00
      1.301  0.7713E-02  0.7713E-02  0.4350E+00  0.4350E+00
      1.377  0.4910E-02  0.4910E-02  0.4353E+00  0.4353E+00
      1.453  0.3532E-02  0.3532E-02  0.4356E+00  0.4356E+00
      1.530  0.3153E-02  0.3153E-02  0.4358E+00  0.4358E+00
      1.606  0.4427E-02  0.4427E-02  0.4362E+00  0.4362E+00
      1.682  0.8474E-02  0.8474E-02  0.4368E+00  0.4368E+00
      1.758  0.1557E-01  0.1557E-01  0.4380E+00  0.4380E+00
      1.835  0.2397E-01  0.2397E-01  0.4398E+00  0.4398E+00
      1.911  0.2944E-01  0.2944E-01  0.4421E+00  0.4421E+00
      1.987  0.2748E-01  0.2748E-01  0.4442E+00  0.4442E+00
      2.064  0.1819E-01  0.1819E-01  0.4456E+00  0.4456E+00
      2.140  0.7568E-02  0.7568E-02  0.4461E+00  0.4461E+00
      2.216  0.2174E-02  0.2174E-02  0.4463E+00  0.4463E+00
      2.292  0.3310E-02  0.3310E-02  0.4466E+00  0.4466E+00
      2.369  0.7119E-02  0.7119E-02  0.4471E+00  0.4471E+00
      2.445  0.9409E-02  0.9409E-02  0.4478E+00  0.4478E+00
      2.521  0.9721E-02  0.9721E-02  0.4486E+00  0.4486E+00
      2.597  0.1020E-01  0.1020E-01  0.4493E+00  0.4493E+00
      2.674  0.1194E-01  0.1194E-01  0.4503E+00  0.4503E+00
      2.750  0.1393E-01  0.1393E-01  0.4513E+00  0.4513E+00
      2.826  0.1417E-01  0.1417E-01  0.4524E+00  0.4524E+00
      2.903  0.1165E-01  0.1165E-01  0.4533E+00  0.4533E+00
      2.979  0.8525E-02  0.8525E-02  0.4539E+00  0.4539E+00
      3.055  0.8836E-02  0.8836E-02  0.4546E+00  0.4546E+00
      3.131  0.1369E-01  0.1369E-01  0.4557E+00  0.4557E+00
      3.208  0.1944E-01  0.1944E-01  0.4571E+00  0.4571E+00
      3.284  0.2142E-01  0.2142E-01  0.4588E+00  0.4588E+00
      3.360  0.1810E-01  0.1810E-01  0.4602E+00  0.4602E+00
      3.437  0.1153E-01  0.1153E-01  0.4610E+00  0.4610E+00
      3.513  0.5268E-02  0.5268E-02  0.4614E+00  0.4614E+00
      3.589  0.2408E-02  0.2408E-02  0.4616E+00  0.4616E+00
      3.665  0.4352E-02  0.4352E-02  0.4619E+00  0.4619E+00
      3.742  0.9638E-02  0.9638E-02  0.4627E+00  0.4627E+00
      3.818  0.1417E-01  0.1417E-01  0.4638E+00  0.4638E+00
      3.894  0.1433E-01  0.1433E-01  0.4649E+00  0.4649E+00
      3.971  0.1040E-01  0.1040E-01  0.4656E+00  0.4656E+00
      4.047  0.6304E-02  0.6304E-02  0.4661E+00  0.4661E+00
      4.123  0.5566E-02  0.5566E-02  0.4666E+00  0.4666E+00
      4.199  0.7538E-02  0.7538E-02  0.4671E+00  0.4671E+00
      4.276  0.8907E-02  0.8907E-02  0.4678E+00  0.4678E+00
      4.352  0.8349E-02  0.8349E-02  0.4684E+00  0.4684E+00
      4.428  0.7168E-02  0.7168E-02  0.4690E+00  0.4690E+00
      4.505  0.6618E-02  0.6618E-02  0.4695E+00  0.4695E+00
      4.581  0.7666E-02  0.7666E-02  0.4701E+00  0.4701E+00
      4.657  0.1112E-01  0.1112E-01  0.4709E+00  0.4709E+00
      4.733  0.1531E-01  0.1531E-01  0.4721E+00  0.4721E+00
      4.810  0.1649E-01  0.1649E-01  0.4734E+00  0.4734E+00
      4.886  0.1371E-01  0.1371E-01  0.4744E+00  0.4744E+00
      4.962  0.1023E-01  0.1023E-01  0.4752E+00  0.4752E+00
      5.039  0.9042E-02  0.9042E-02  0.4759E+00  0.4759E+00
      5.115  0.9770E-02  0.9770E-02  0.4766E+00  0.4766E+00
      5.191  0.1058E-01  0.1058E-01  0.4774E+00  0.4774E+00
      5.267  0.1069E-01  0.1069E-01  0.4782E+00  0.4782E+00
      5.344  0.1091E-01  0.1091E-01  0.4791E+00  0.4791E+00
      5.420  0.1241E-01  0.1241E-01  0.4800E+00  0.4800E+00
      5.496  0.1445E-01  0.1445E-01  0.4811E+00  0.4811E+00
      5.572  0.1429E-01  0.1429E-01  0.4822E+00  0.4822E+00
      5.649  0.1098E-01  0.1098E-01  0.4830E+00  0.4830E+00
      5.725  0.7230E-02  0.7230E-02  0.4836E+00  0.4836E+00
      5.801  0.5983E-02  0.5983E-02  0.4841E+00  0.4841E+00
      5.878  0.7307E-02  0.7307E-02  0.4846E+00  0.4846E+00
      5.954  0.9512E-02  0.9512E-02  0.4853E+00  0.4853E+00
      6.030  0.1142E-01  0.1142E-01  0.4862E+00  0.4862E+00
      6.106  0.1256E-01  0.1256E-01  0.4872E+00  0.4872E+00
      6.183  0.1255E-01  0.1255E-01  0.4881E+00  0.4881E+00
      6.259  0.1182E-01  0.1182E-01  0.4890E+00  0.4890E+00
      6.335  0.1226E-01  0.1226E-01  0.4900E+00  0.4900E+00
      6.412  0.1520E-01  0.1520E-01  0.4911E+00  0.4911E+00
      6.488  0.1922E-01  0.1922E-01  0.4926E+00  0.4926E+00
      6.564  0.2094E-01  0.2094E-01  0.4942E+00  0.4942E+00
      6.640  0.1896E-01  0.1896E-01  0.4956E+00  0.4956E+00
      6.717  0.1612E-01  0.1612E-01  0.4969E+00  0.4969E+00
      6.793  0.1598E-01  0.1598E-01  0.4981E+00  0.4981E+00
      6.869  0.1753E-01  0.1753E-01  0.4994E+00  0.4994E+00
      6.946  0.1650E-01  0.1650E-01  0.5007E+00  0.5007E+00
      7.022  0.1175E-01  0.1175E-01  0.5016E+00  0.5016E+00
      7.098  0.7092E-02  0.7092E-02  0.5021E+00  0.5021E+00
      7.174  0.6204E-02  0.6204E-02  0.5026E+00  0.5026E+00
      7.251  0.8765E-02  0.8765E-02  0.5033E+00  0.5033E+00
      7.327  0.1194E-01  0.1194E-01  0.5042E+00  0.5042E+00
      7.403  0.1358E-01  0.1358E-01  0.5052E+00  0.5052E+00
      7.480  0.1368E-01  0.1368E-01  0.5062E+00  0.5062E+00
      7.556  0.1375E-01  0.1375E-01  0.5073E+00  0.5073E+00
      7.632  0.1476E-01  0.1476E-01  0.5084E+00  0.5084E+00
      7.708  0.1667E-01  0.1667E-01  0.5097E+00  0.5097E+00
      7.785  0.1954E-01  0.1954E-01  0.5112E+00  0.5112E+00
      7.861  0.2299E-01  0.2299E-01  0.5129E+00  0.5129E+00
      7.937  0.2430E-01  0.2430E-01  0.5148E+00  0.5148E+00
      8.013  0.2051E-01  0.2051E-01  0.5164E+00  0.5164E+00
      8.090  0.1307E-01  0.1307E-01  0.5174E+00  0.5174E+00
      8.166  0.7835E-02  0.7835E-02  0.5180E+00  0.5180E+00
      8.242  0.9733E-02  0.9733E-02  0.5187E+00  0.5187E+00
      8.319  0.1731E-01  0.1731E-01  0.5200E+00  0.5200E+00
      8.395  0.2329E-01  0.2329E-01  0.5218E+00  0.5218E+00
      8.471  0.2189E-01  0.2189E-01  0.5235E+00  0.5235E+00
      8.547  0.1510E-01  0.1510E-01  0.5246E+00  0.5246E+00
      8.624  0.9412E-02  0.9412E-02  0.5253E+00  0.5253E+00
      8.700  0.8351E-02  0.8351E-02  0.5260E+00  0.5260E+00
      8.776  0.1101E-01  0.1101E-01  0.5268E+00  0.5268E+00
      8.853  0.1531E-01  0.1531E-01  0.5280E+00  0.5280E+00
      8.929  0.1924E-01  0.1924E-01  0.5294E+00  0.5294E+00
      9.005  0.2101E-01  0.2101E-01  0.5310E+00  0.5310E+00
      9.081  0.2047E-01  0.2047E-01  0.5326E+00  0.5326E+00
      9.158  0.1937E-01  0.1937E-01  0.5341E+00  0.5341E+00
      9.234  0.1912E-01  0.1912E-01  0.5355E+00  0.5355E+00
      9.310  0.1945E-01  0.1945E-01  0.5370E+00  0.5370E+00
      9.387  0.1950E-01  0.1950E-01  0.5385E+00  0.5385E+00
      9.463  0.1916E-01  0.1916E-01  0.5400E+00  0.5400E+00
      9.539  0.1887E-01  0.1887E-01  0.5414E+00  0.5414E+00
      9.615  0.1847E-01  0.1847E-01  0.5428E+00  0.5428E+00
      9.692  0.1716E-01  0.1716E-01  0.5441E+00  0.5441E+00
      9.768  0.1533E-01  0.1533E-01  0.5453E+00  0.5453E+00
      9.844  0.1474E-01  0.1474E-01  0.5464E+00  0.5464E+00
      9.921  0.1572E-01  0.1572E-01  0.5476E+00  0.5476E+00
      9.997  0.1638E-01  0.1638E-01  0.5489E+00  0.5489E+00
     10.073  0.1550E-01  0.1550E-01  0.5501E+00  0.5501E+00
     10.149  0.1450E-01  0.1450E-01  0.5512E+00  0.5512E+00
     10.226  0.1602E-01  0.1602E-01  0.5524E+00  0.5524E+00
     10.302  0.2077E-01  0.2077E-01  0.5540E+00  0.5540E+00
     10.378  0.2602E-01  0.2602E-01  0.5560E+00  0.5560E+00
     10.454  0.2779E-01  0.2779E-01  0.5581E+00  0.5581E+00
     10.531  0.2466E-01  0.2466E-01  0.5600E+00  0.5600E+00
     10.607  0.1910E-01  0.1911E-01  0.5614E+00  0.5614E+00
     10.683  0.1448E-01  0.1448E-01  0.5625E+00  0.5625E+00
     10.760  0.1196E-01  0.1196E-01  0.5634E+00  0.5634E+00
     10.836  0.1106E-01  0.1106E-01  0.5643E+00  0.5643E+00
     10.912  0.1157E-01  0.1157E-01  0.5652E+00  0.5652E+00
     10.988  0.1290E-01  0.1290E-01  0.5661E+00  0.5661E+00
     11.065  0.1329E-01  0.1329E-01  0.5672E+00  0.5672E+00
     11.141  0.1152E-01  0.1152E-01  0.5680E+00  0.5680E+00
     11.217  0.8713E-02  0.8713E-02  0.5687E+00  0.5687E+00
     11.294  0.6664E-02  0.6664E-02  0.5692E+00  0.5692E+00
     11.370  0.5376E-02  0.5376E-02  0.5696E+00  0.5696E+00
     11.446  0.3724E-02  0.3724E-02  0.5699E+00  0.5699E+00
     11.522  0.1680E-02  0.1680E-02  0.5700E+00  0.5700E+00
     11.599  0.2171E-03  0.2171E-03  0.5700E+00  0.5700E+00
     11.675 -0.2696E-03 -0.2696E-03  0.5700E+00  0.5700E+00
     11.751 -0.2154E-03 -0.2154E-03  0.5700E+00  0.5700E+00
     11.828 -0.8519E-04 -0.8520E-04  0.5700E+00  0.5700E+00
     11.904 -0.2170E-04 -0.2170E-04  0.5700E+00  0.5700E+00
     11.980 -0.3822E-05 -0.3822E-05  0.5700E+00  0.5700E+00
     12.056 -0.4795E-06 -0.4795E-06  0.5700E+00  0.5700E+00
     12.133 -0.4354E-07 -0.4354E-07  0.5700E+00  0.5700E+00
     12.209 -0.2888E-08 -0.2888E-08  0.5700E+00  0.5700E+00
     12.285 -0.1407E-09 -0.1408E-09  0.5700E+00  0.5700E+00
     12.362 -0.5061E-11 -0.5062E-11  0.5700E+00  0.5700E+00
     12.438 -0.1347E-12 -0.1347E-12  0.5700E+00  0.5700E+00
     12.514 -0.2657E-14 -0.2657E-14  0.5700E+00  0.5700E+00
     12.590 -0.4043E-16 -0.4043E-16  0.5700E+00  0.5700E+00
     12.667  0.0000E+00  0.0000E+00  0.5700E+00  0.5700E+00
     12.743  0.0000E+00  0.0000E+00  0.5700E+00  0.5700E+00
     12.819  0.0000E+00  0.0000E+00  0.5700E+00  0.5700E+00
     12.895  0.0000E+00  0.0000E+00  0.5700E+00  0.5700E+00
     12.972  0.0000E+00  0.0000E+00  0.5700E+00  0.5700E+00
     13.048  0.0000E+00  0.0000E+00  0.5700E+00  0.5700E+00
     13.124  0.0000E+00  0.0000E+00  0.5700E+00  0.5700E+00
     13.201  0.0000E+00  0.0000E+00  0.5700E+00  0.5700E+00
     13.277  0.0000E+00  0.0000E+00  0.5700E+00  0.5700E+00
     13.353  0.0000E+00  0.0000E+00  0.5700E+00  0.5700E+00
