<?xml version="1.0" encoding="ISO-8859-1"?>
<modeling>
 <generator>
  <i name="program" type="string">vasp </i>
  <i name="version" type="string">6.3.2  </i>
  <i name="subversion" type="string">27Jun22 (build Aug 17 2022 15:43:34) complex                          parallel </i>
  <i name="platform" type="string">tv2STDVTST </i>
  <i name="date" type="string">2025 02 17 </i>
  <i name="time" type="string">15:56:53 </i>
 </generator>
 <incar>
  <i type="int" name="ISTART">     0</i>
  <i type="string" name="PREC">Normal</i>
  <i type="int" name="ISPIN">     2</i>
  <i type="int" name="ICHARG">     2</i>
  <i type="int" name="IBRION">     2</i>
  <i name="EDIFF">      0.00020000</i>
  <i name="EDIFFG">     -0.03000000</i>
  <i type="int" name="NSW">   800</i>
  <i type="int" name="ISIF">     2</i>
  <i type="int" name="ISYM">     1</i>
  <i name="ENCUT">    400.00000000</i>
  <i name="POTIM">      0.50000000</i>
  <i type="logical" name="LREAL"> F  </i>
  <i type="int" name="ISMEAR">     1</i>
  <i name="SIGMA">      0.20000000</i>
  <i type="logical" name="LWAVE"> F  </i>
  <i type="logical" name="LCHARG"> F  </i>
  <i type="string" name="GGA">PE</i>
  <i type="int" name="IVDW">    11</i>
 </incar>
 <primitive_cell>
  <structure name="primitive_cell" >
   <crystal>
    <varray name="basis" >
     <v>       7.26000023       0.00000000       0.00000000 </v>
     <v>       0.00000000       7.26000023       0.00000000 </v>
     <v>       0.00000000       0.00000000      27.70499992 </v>
    </varray>
    <i name="volume">   1460.26414606 </i>
    <varray name="rec_basis" >
     <v>       0.13774104       0.00000000       0.00000000 </v>
     <v>       0.00000000       0.13774104       0.00000000 </v>
     <v>       0.00000000       0.00000000       0.03609457 </v>
    </varray>
   </crystal>
   <varray name="positions" >
    <v>       0.00000000       0.00000000       0.00000000 </v>
    <v>       0.00000000       0.50000000       0.00000000 </v>
    <v>       0.50000000       0.00000000       0.00000000 </v>
    <v>       0.50000000       0.50000000       0.00000000 </v>
    <v>       0.25000000       0.25000000       0.00000000 </v>
    <v>       0.25000000       0.75000000       0.00000000 </v>
    <v>       0.75000000       0.25000000       0.00000000 </v>
    <v>       0.75000000       0.75000000       0.00000000 </v>
    <v>       0.00000000       0.25000000       0.06551164 </v>
    <v>       0.00000000       0.75000000       0.06551164 </v>
    <v>       0.50000000       0.25000000       0.06551164 </v>
    <v>       0.50000000       0.75000000       0.06551164 </v>
    <v>       0.25000000       0.00000000       0.06551164 </v>
    <v>       0.25000000       0.50000000       0.06551164 </v>
    <v>       0.75000000       0.00000000       0.06551164 </v>
    <v>       0.75000000       0.50000000       0.06551164 </v>
    <v>       0.00000000       0.00000000       0.13164128 </v>
    <v>       0.00000000       0.50000000       0.13164128 </v>
    <v>       0.50000000       0.00000000       0.13164128 </v>
    <v>       0.50000000       0.50000000       0.13164128 </v>
    <v>       0.25000000       0.25000000       0.13164128 </v>
    <v>       0.25000000       0.75000000       0.13164128 </v>
    <v>       0.75000000       0.25000000       0.13164128 </v>
    <v>       0.75000000       0.75000000       0.13164128 </v>
    <v>       0.00000000       0.25000000       0.19677891 </v>
    <v>       0.00000000       0.75000000       0.19677891 </v>
    <v>       0.50000000       0.25000000       0.19677891 </v>
    <v>       0.50000000       0.75000000       0.19677891 </v>
    <v>       0.25000000       0.00000000       0.19677891 </v>
    <v>       0.25000000       0.50000000       0.19677891 </v>
    <v>       0.75000000       0.00000000       0.19677891 </v>
    <v>       0.75000000       0.50000000       0.19677891 </v>
    <v>       0.00000000       0.00000000       0.26184662 </v>
    <v>       0.00000000       0.50000000       0.26184662 </v>
    <v>       0.50000000       0.00000000       0.26184662 </v>
    <v>       0.50000000       0.50000000       0.26184662 </v>
    <v>       0.25000000       0.25000000       0.26184662 </v>
    <v>       0.25000000       0.75000000       0.26184662 </v>
    <v>       0.75000000       0.25000000       0.26184662 </v>
    <v>       0.75000000       0.75000000       0.26184662 </v>
    <v>       0.00000000       0.25000000       0.32758887 </v>
    <v>       0.00000000       0.75000000       0.32758887 </v>
    <v>       0.50000000       0.25000000       0.32758887 </v>
    <v>       0.50000000       0.75000000       0.32758887 </v>
    <v>       0.25000000       0.00000000       0.32758887 </v>
    <v>       0.25000000       0.50000000       0.32758887 </v>
    <v>       0.75000000       0.00000000       0.32758887 </v>
    <v>       0.75000000       0.50000000       0.32758887 </v>
    <v>       0.00000000       0.00000000       0.39185763 </v>
    <v>       0.00000000       0.50000000       0.39185763 </v>
    <v>       0.50000000       0.00000000       0.39185763 </v>
    <v>       0.50000000       0.50000000       0.39185763 </v>
    <v>       0.25000000       0.25000000       0.39185763 </v>
    <v>       0.25000000       0.75000000       0.39185763 </v>
    <v>       0.75000000       0.25000000       0.39185763 </v>
    <v>       0.75000000       0.75000000       0.39185763 </v>
    <v>       0.00000000       0.25000000       0.45475490 </v>
    <v>       0.00000000       0.75000000       0.45475490 </v>
    <v>       0.50000000       0.25000000       0.45475490 </v>
    <v>       0.50000000       0.75000000       0.45475490 </v>
    <v>       0.25000000       0.00000000       0.45475490 </v>
    <v>       0.25000000       0.50000000       0.45475490 </v>
    <v>       0.75000000       0.00000000       0.45475490 </v>
    <v>       0.75000000       0.50000000       0.45475490 </v>
    <v>       0.50000000       0.50000000       0.50150658 </v>
    <v>       0.50000000       0.60275482       0.50150658 </v>
   </varray>
  </structure>
  <varray name="primitive_index" >
   <v type="int" >        1 </v>
   <v type="int" >        2 </v>
   <v type="int" >        3 </v>
   <v type="int" >        4 </v>
   <v type="int" >        5 </v>
   <v type="int" >        6 </v>
   <v type="int" >        7 </v>
   <v type="int" >        8 </v>
   <v type="int" >        9 </v>
   <v type="int" >       10 </v>
   <v type="int" >       11 </v>
   <v type="int" >       12 </v>
   <v type="int" >       13 </v>
   <v type="int" >       14 </v>
   <v type="int" >       15 </v>
   <v type="int" >       16 </v>
   <v type="int" >       17 </v>
   <v type="int" >       18 </v>
   <v type="int" >       19 </v>
   <v type="int" >       20 </v>
   <v type="int" >       21 </v>
   <v type="int" >       22 </v>
   <v type="int" >       23 </v>
   <v type="int" >       24 </v>
   <v type="int" >       25 </v>
   <v type="int" >       26 </v>
   <v type="int" >       27 </v>
   <v type="int" >       28 </v>
   <v type="int" >       29 </v>
   <v type="int" >       30 </v>
   <v type="int" >       31 </v>
   <v type="int" >       32 </v>
   <v type="int" >       33 </v>
   <v type="int" >       34 </v>
   <v type="int" >       35 </v>
   <v type="int" >       36 </v>
   <v type="int" >       37 </v>
   <v type="int" >       38 </v>
   <v type="int" >       39 </v>
   <v type="int" >       40 </v>
   <v type="int" >       41 </v>
   <v type="int" >       42 </v>
   <v type="int" >       43 </v>
   <v type="int" >       44 </v>
   <v type="int" >       45 </v>
   <v type="int" >       46 </v>
   <v type="int" >       47 </v>
   <v type="int" >       48 </v>
   <v type="int" >       49 </v>
   <v type="int" >       50 </v>
   <v type="int" >       51 </v>
   <v type="int" >       52 </v>
   <v type="int" >       53 </v>
   <v type="int" >       54 </v>
   <v type="int" >       55 </v>
   <v type="int" >       56 </v>
   <v type="int" >       57 </v>
   <v type="int" >       58 </v>
   <v type="int" >       59 </v>
   <v type="int" >       60 </v>
   <v type="int" >       61 </v>
   <v type="int" >       62 </v>
   <v type="int" >       63 </v>
   <v type="int" >       64 </v>
   <v type="int" >       65 </v>
   <v type="int" >       66 </v>
  </varray>
 </primitive_cell>
 <kpoints>
  <generation param="Monkhorst-Pack">
   <v type="int" name="divisions">       3        3        1 </v>
   <v name="usershift">      0.00000000       0.00000000       0.00000000 </v>
   <v name="genvec1">      0.33333333       0.00000000       0.00000000 </v>
   <v name="genvec2">      0.00000000       0.33333333       0.00000000 </v>
   <v name="genvec3">      0.00000000       0.00000000       1.00000000 </v>
   <v name="shift">      0.00000000       0.00000000       0.00000000 </v>
  </generation>
  <varray name="kpointlist" >
   <v>       0.00000000       0.00000000       0.00000000 </v>
   <v>       0.33333333       0.00000000       0.00000000 </v>
   <v>       0.00000000       0.33333333       0.00000000 </v>
   <v>       0.33333333       0.33333333       0.00000000 </v>
  </varray>
  <varray name="weights" >
   <v>       0.11111111 </v>
   <v>       0.22222222 </v>
   <v>       0.22222222 </v>
   <v>       0.44444444 </v>
  </varray>
 </kpoints>
 <parameters>
  <separator name="general" >
   <i type="string" name="SYSTEM">unknown system</i>
   <i type="logical" name="LCOMPAT"> F  </i>
  </separator>
  <separator name="electronic" >
   <i type="string" name="PREC">normal</i>
   <i name="ENMAX">    400.00000000</i>
   <i name="ENAUG">    586.98000000</i>
   <i name="EDIFF">      0.00020000</i>
   <i type="int" name="IALGO">    38</i>
   <i type="int" name="IWAVPR">    11</i>
   <i type="int" name="NBANDS">   456</i>
   <i type="int" name="NBANDSLOW">    -1</i>
   <i type="int" name="NBANDSHIGH">    -1</i>
   <i name="NELECT">    706.00000000</i>
   <i type="int" name="TURBO">     0</i>
   <i type="int" name="IRESTART">     0</i>
   <i type="int" name="NREBOOT">     0</i>
   <i type="int" name="NMIN">     0</i>
   <i name="EREF">      0.00000000</i>
   <separator name="electronic smearing" >
    <i type="int" name="ISMEAR">     1</i>
    <i name="SIGMA">      0.20000000</i>
    <i name="KSPACING">      0.50000000</i>
    <i type="logical" name="KGAMMA"> T  </i>
    <i type="logical" name="KBLOWUP"> T  </i>
   </separator>
   <separator name="electronic projectors" >
    <i type="logical" name="LREAL"> F  </i>
    <v name="ROPT">      0.00000000      0.00000000</v>
    <i type="int" name="LMAXPAW">  -100</i>
    <i type="int" name="LMAXMIX">     2</i>
    <i type="logical" name="NLSPLINE"> F  </i>
   </separator>
   <separator name="electronic startup" >
    <i type="int" name="ISTART">     0</i>
    <i type="int" name="ICHARG">     2</i>
    <i type="int" name="INIWAV">     1</i>
   </separator>
   <separator name="electronic spin" >
    <i type="int" name="ISPIN">     2</i>
    <i type="logical" name="LNONCOLLINEAR"> F  </i>
    <v name="MAGMOM">      1.00000000      1.00000000      1.00000000      1.00000000      1.00000000      1.00000000      1.00000000      1.00000000      1.00000000      1.00000000      1.00000000      1.00000000      1.00000000      1.00000000      1.00000000      1.00000000      1.00000000      1.00000000      1.00000000      1.00000000
      1.00000000      1.00000000      1.00000000      1.00000000      1.00000000      1.00000000      1.00000000      1.00000000      1.00000000      1.00000000      1.00000000      1.00000000      1.00000000      1.00000000      1.00000000      1.00000000      1.00000000      1.00000000      1.00000000      1.00000000
      1.00000000      1.00000000      1.00000000      1.00000000      1.00000000      1.00000000      1.00000000      1.00000000      1.00000000      1.00000000      1.00000000      1.00000000      1.00000000      1.00000000      1.00000000      1.00000000      1.00000000      1.00000000      1.00000000      1.00000000
      1.00000000      1.00000000      1.00000000      1.00000000      1.00000000      1.00000000</v>
    <i name="NUPDOWN">     -1.00000000</i>
    <i type="logical" name="LSORBIT"> F  </i>
    <v name="SAXIS">      0.00000000      0.00000000      1.00000000</v>
    <i type="logical" name="LSPIRAL"> F  </i>
    <v name="QSPIRAL">      0.00000000      0.00000000      0.00000000</v>
    <i type="logical" name="LZEROZ"> F  </i>
   </separator>
   <separator name="electronic exchange-correlation" >
    <i type="logical" name="LASPH"> F  </i>
    <i type="logical" name="LMETAGGA"> F  </i>
   </separator>
   <separator name="electronic convergence" >
    <i type="int" name="NELM">    60</i>
    <i type="int" name="NELMDL">    -5</i>
    <i type="int" name="NELMIN">     2</i>
    <i name="ENINI">    400.00000000</i>
    <separator name="electronic convergence detail" >
     <i type="logical" name="LDIAG"> T  </i>
     <i type="logical" name="LSUBROT"> F  </i>
     <i name="WEIMIN">      0.00100000</i>
     <i name="EBREAK">      0.00000011</i>
     <i name="DEPER">      0.30000000</i>
     <i type="int" name="NRMM">     4</i>
     <i name="TIME">      0.40000000</i>
    </separator>
   </separator>
   <separator name="electronic mixer" >
    <i name="AMIX">      0.40000000</i>
    <i name="BMIX">      1.00000000</i>
    <i name="AMIN">      0.10000000</i>
    <i name="AMIX_MAG">      1.60000000</i>
    <i name="BMIX_MAG">      1.00000000</i>
    <separator name="electronic mixer details" >
     <i type="int" name="IMIX">     4</i>
     <i type="logical" name="MIXFIRST"> F  </i>
     <i type="int" name="MAXMIX">   -45</i>
     <i name="WC">    100.00000000</i>
     <i type="int" name="INIMIX">     1</i>
     <i type="int" name="MIXPRE">     1</i>
     <i type="int" name="MREMOVE">     5</i>
    </separator>
   </separator>
   <separator name="electronic dipolcorrection" >
    <i type="logical" name="LDIPOL"> F  </i>
    <i type="logical" name="LMONO"> F  </i>
    <i type="int" name="IDIPOL">     0</i>
    <i name="EPSILON">      1.00000000</i>
    <v name="DIPOL">   -100.00000000   -100.00000000   -100.00000000</v>
    <i name="EFIELD">      0.00000000</i>
   </separator>
  </separator>
  <separator name="grids" >
   <i type="int" name="NGX">    36</i>
   <i type="int" name="NGY">    36</i>
   <i type="int" name="NGZ">   140</i>
   <i type="int" name="NGXF">    72</i>
   <i type="int" name="NGYF">    72</i>
   <i type="int" name="NGZF">   280</i>
   <i type="logical" name="ADDGRID"> F  </i>
  </separator>
  <separator name="ionic" >
   <i type="int" name="NSW">   800</i>
   <i type="int" name="IBRION">     2</i>
   <i type="int" name="MDALGO">     0</i>
   <i type="int" name="ISIF">     2</i>
   <i name="PSTRESS">      0.00000000</i>
   <i name="EDIFFG">     -0.03000000</i>
   <i type="int" name="NFREE">     1</i>
   <i name="POTIM">      0.50000000</i>
   <i name="SMASS">     -3.00000000</i>
   <i name="SCALEE">      1.00000000</i>
  </separator>
  <separator name="ionic md" >
   <i name="TEBEG">      0.00010000</i>
   <i name="TEEND">      0.00010000</i>
   <i type="int" name="NBLOCK">     1</i>
   <i type="int" name="KBLOCK">   800</i>
   <i type="int" name="NPACO">   256</i>
   <i name="APACO">     10.00000000</i>
  </separator>
  <separator name="symmetry" >
   <i type="int" name="ISYM">     1</i>
   <i name="SYMPREC">      0.00001000</i>
  </separator>
  <separator name="dos" >
   <i type="int" name="LORBIT">     0</i>
   <v name="RWIGS">     -1.00000000     -1.00000000</v>
   <i type="int" name="NEDOS">   301</i>
   <i name="EMIN">     10.00000000</i>
   <i name="EMAX">    -10.00000000</i>
   <i name="EFERMI">      0.00000000</i>
  </separator>
  <separator name="writing" >
   <i type="int" name="NWRITE">     2</i>
   <i type="logical" name="LWAVE"> F  </i>
   <i type="logical" name="LDOWNSAMPLE"> F  </i>
   <i type="logical" name="LCHARG"> F  </i>
   <i type="logical" name="LPARD"> F  </i>
   <i type="logical" name="LVTOT"> F  </i>
   <i type="logical" name="LVHAR"> F  </i>
   <i type="logical" name="LELF"> F  </i>
   <i type="logical" name="LOPTICS"> F  </i>
   <v name="STM">      0.00000000      0.00000000      0.00000000      0.00000000      0.00000000      0.00000000      0.00000000</v>
  </separator>
  <separator name="performance" >
   <i type="int" name="NPAR">     4</i>
   <i type="int" name="NSIM">     4</i>
   <i type="int" name="NBLK">    -1</i>
   <i type="logical" name="LPLANE"> T  </i>
   <i type="logical" name="LSCALAPACK"> T  </i>
   <i type="logical" name="LSCAAWARE"> F  </i>
   <i type="logical" name="LSCALU"> F  </i>
   <i type="logical" name="LASYNC"> F  </i>
   <i type="logical" name="LORBITALREAL"> F  </i>
  </separator>
  <separator name="miscellaneous" >
   <i type="int" name="IDIOT">     3</i>
   <i type="int" name="PHON_NSTRUCT">    -1</i>
   <i type="logical" name="LMUSIC"> F  </i>
   <v name="POMASS">     63.54600000      1.00000000</v>
   <v name="DARWINR">      0.00000000      0.00000000</v>
   <v name="DARWINV">      1.00000000      1.00000000</v>
   <i type="logical" name="LCORR"> T  </i>
  </separator>
  <i type="logical" name="GGA_COMPAT"> T  </i>
  <i type="logical" name="LBERRY"> F  </i>
  <i type="int" name="ICORELEVEL">     0</i>
  <i type="logical" name="LDAU"> F  </i>
  <i type="int" name="I_CONSTRAINED_M">     0</i>
  <separator name="electronic exchange-correlation" >
   <i type="string" name="GGA">PE</i>
   <i type="int" name="VOSKOWN">     0</i>
   <i type="logical" name="LHFCALC"> F  </i>
   <i type="string" name="PRECFOCK"></i>
   <i type="logical" name="LSYMGRAD"> F  </i>
   <i type="logical" name="LHFONE"> F  </i>
   <i type="logical" name="LRHFCALC"> F  </i>
   <i type="logical" name="LTHOMAS"> F  </i>
   <i type="logical" name="LMODELHF"> F  </i>
   <i type="logical" name="LFOCKACE"> F  </i>
   <i name="ENCUT4O">     -1.00000000</i>
   <i type="int" name="EXXOEP">     0</i>
   <i type="int" name="FOURORBIT">     0</i>
   <i name="AEXX">      0.00000000</i>
   <i name="HFALPHA">      0.00000000</i>
   <i name="MCALPHA">      0.00000000</i>
   <i name="ALDAX">      1.00000000</i>
   <i name="AGGAX">      1.00000000</i>
   <i name="ALDAC">      1.00000000</i>
   <i name="AGGAC">      1.00000000</i>
   <i type="int" name="NKREDX">     1</i>
   <i type="int" name="NKREDY">     1</i>
   <i type="int" name="NKREDZ">     1</i>
   <i type="logical" name="SHIFTRED"> F  </i>
   <i type="logical" name="ODDONLY"> F  </i>
   <i type="logical" name="EVENONLY"> F  </i>
   <i type="int" name="LMAXFOCK">     0</i>
   <i type="int" name="NMAXFOCKAE">     0</i>
   <i type="logical" name="LFOCKAEDFT"> F  </i>
   <i name="HFSCREEN">      0.00000000</i>
   <i name="HFSCREENC">      0.00000000</i>
   <i type="int" name="NBANDSGWLOW">     0</i>
  </separator>
  <separator name="vdW DFT" >
   <i type="logical" name="LUSE_VDW"> F  </i>
   <i name="Zab_VDW">     -0.84910000</i>
   <i name="PARAM1">      0.12340000</i>
   <i name="PARAM2">      1.00000000</i>
   <i name="PARAM3">      0.00000000</i>
  </separator>
  <separator name="model GW" >
   <i type="int" name="MODEL_GW">     0</i>
   <i name="MODEL_EPS0">     13.27512860</i>
   <i name="MODEL_ALPHA">      1.00000000</i>
  </separator>
  <separator name="linear response parameters" >
   <i type="logical" name="LEPSILON"> F  </i>
   <i type="logical" name="LRPA"> F  </i>
   <i type="logical" name="LNABLA"> F  </i>
   <i type="logical" name="LVEL"> F  </i>
   <i name="CSHIFT">      0.10000000</i>
   <i name="OMEGAMAX">     -1.00000000</i>
   <i name="DEG_THRESHOLD">      0.00200000</i>
   <i name="RTIME">     -0.10000000</i>
   <i name="WPLASMAI">      0.00000000</i>
   <v name="DFIELD">      0.00000000      0.00000000      0.00000000</v>
   <v name="WPLASMA">      0.00000000      0.00000000      0.00000000      0.00000000      0.00000000      0.00000000      0.00000000      0.00000000      0.00000000</v>
  </separator>
  <separator name="orbital magnetization" >
   <i type="logical" name="NUCIND"> F  </i>
   <v name="MAGPOS">      0.00000000      0.00000000      0.00000000</v>
   <i type="logical" name="LNICSALL"> T  </i>
   <i type="logical" name="ORBITALMAG"> F  </i>
   <i type="logical" name="LMAGBLOCH"> F  </i>
   <i type="logical" name="LCHIMAG"> F  </i>
   <i type="logical" name="LGAUGE"> T  </i>
   <i type="int" name="MAGATOM">     0</i>
   <v name="MAGDIPOL">      0.00000000      0.00000000      0.00000000</v>
   <v name="AVECCONST">      0.00000000      0.00000000      0.00000000</v>
  </separator>
  <separator name="response functions" >
   <i type="logical" name="LFINITE_TEMPERATURE"> F  </i>
   <i type="logical" name="LADDER"> F  </i>
   <i type="logical" name="LRPAFORCE"> F  </i>
   <i type="logical" name="LFXC"> F  </i>
   <i type="logical" name="LHARTREE"> T  </i>
   <i type="int" name="IBSE">     0</i>
   <v type="int" name="KPOINT">    -1     0     0     0</v>
   <i type="logical" name="LTCTC"> F  </i>
   <i type="logical" name="LTCTE"> F  </i>
   <i type="logical" name="LTETE"> F  </i>
   <i type="logical" name="LTRIPLET"> F  </i>
   <i type="logical" name="LFXCEPS"> F  </i>
   <i type="logical" name="LFXHEG"> F  </i>
   <i type="int" name="NATURALO">     2</i>
   <i type="logical" name="LHOLEGF"> F  </i>
   <i type="logical" name="L2ORDER"> F  </i>
   <i type="logical" name="LDMP1"> F  </i>
   <i type="logical" name="LMP2LT"> F  </i>
   <i type="logical" name="LSMP2LT"> F  </i>
   <i type="logical" name="LGWLF"> F  </i>
   <i name="ENCUTGW">     -2.00000000</i>
   <i name="ENCUTGWSOFT">     -2.00000000</i>
   <i name="ENCUTLF">     -1.00000000</i>
   <i type="logical" name="LESF_SPLINES"> F  </i>
   <i type="int" name="LMAXMP2">    -1</i>
   <i name="SCISSOR">      0.00000000</i>
   <i type="int" name="NOMEGA">     0</i>
   <i type="int" name="NOMEGAR">     0</i>
   <i type="int" name="NBANDSGW">    -1</i>
   <i type="int" name="NBANDSO">    -1</i>
   <i type="int" name="NBANDSV">    -1</i>
   <i type="int" name="NELMGW">     1</i>
   <i type="int" name="NELMHF">     1</i>
   <i type="int" name="DIM">     3</i>
   <i type="int" name="IESPILON">     4</i>
   <i type="int" name="ANTIRES">     0</i>
   <i name="OMEGAMAX">    -30.00000000</i>
   <i name="OMEGAMIN">    -30.00000000</i>
   <i name="OMEGATL">   -200.00000000</i>
   <i type="int" name="OMEGAGRID">     0</i>
   <i name="CSHIFT">     -0.10000000</i>
   <i type="logical" name="LSELFENERGY"> F  </i>
   <i type="logical" name="LSPECTRAL"> F  </i>
   <i type="logical" name="LSPECTRALGW"> F  </i>
   <i type="logical" name="LSINGLES"> F  </i>
   <i type="logical" name="LFERMIGW"> F  </i>
   <i type="logical" name="ODDONLYGW"> F  </i>
   <i type="logical" name="EVENONLYGW"> F  </i>
   <i type="int" name="NKREDLFX">     1</i>
   <i type="int" name="NKREDLFY">     1</i>
   <i type="int" name="NKREDLFZ">     1</i>
   <i type="int" name="MAXMEM">  2800</i>
   <i type="int" name="TELESCOPE">     0</i>
   <i type="int" name="NTAUPAR">    -1</i>
   <i type="int" name="NOMEGAPAR">    -1</i>
   <i name="DAMP_NEWTON">      0.80000001</i>
   <i name="LAMBDA">      1.00000000</i>
  </separator>
  <separator name="External order field" >
   <i name="OFIELD_KAPPA">      0.00000000</i>
   <v name="OFIELD_K">      0.00000000      0.00000000      0.00000000</v>
   <i name="OFIELD_Q6_NEAR">      0.00000000</i>
   <i name="OFIELD_Q6_FAR">      0.00000000</i>
   <i name="OFIELD_A">      0.00000000</i>
  </separator>
  <separator name="optional k-points parameters" >
   <i type="int" name="KPOINTS_OPT_MODE">     1</i>
   <i type="logical" name="LKPOINTS_OPT"> F  </i>
  </separator>
 </parameters>
 <atominfo>
  <atoms>      66 </atoms>
  <types>       2 </types>
  <array name="atoms" >
   <dimension dim="1">ion</dimension>
   <field type="string">element</field>
   <field type="int">atomtype</field>
   <set>
    <rc><c>Cu</c><c>   1</c></rc>
    <rc><c>Cu</c><c>   1</c></rc>
    <rc><c>Cu</c><c>   1</c></rc>
    <rc><c>Cu</c><c>   1</c></rc>
    <rc><c>Cu</c><c>   1</c></rc>
    <rc><c>Cu</c><c>   1</c></rc>
    <rc><c>Cu</c><c>   1</c></rc>
    <rc><c>Cu</c><c>   1</c></rc>
    <rc><c>Cu</c><c>   1</c></rc>
    <rc><c>Cu</c><c>   1</c></rc>
    <rc><c>Cu</c><c>   1</c></rc>
    <rc><c>Cu</c><c>   1</c></rc>
    <rc><c>Cu</c><c>   1</c></rc>
    <rc><c>Cu</c><c>   1</c></rc>
    <rc><c>Cu</c><c>   1</c></rc>
    <rc><c>Cu</c><c>   1</c></rc>
    <rc><c>Cu</c><c>   1</c></rc>
    <rc><c>Cu</c><c>   1</c></rc>
    <rc><c>Cu</c><c>   1</c></rc>
    <rc><c>Cu</c><c>   1</c></rc>
    <rc><c>Cu</c><c>   1</c></rc>
    <rc><c>Cu</c><c>   1</c></rc>
    <rc><c>Cu</c><c>   1</c></rc>
    <rc><c>Cu</c><c>   1</c></rc>
    <rc><c>Cu</c><c>   1</c></rc>
    <rc><c>Cu</c><c>   1</c></rc>
    <rc><c>Cu</c><c>   1</c></rc>
    <rc><c>Cu</c><c>   1</c></rc>
    <rc><c>Cu</c><c>   1</c></rc>
    <rc><c>Cu</c><c>   1</c></rc>
    <rc><c>Cu</c><c>   1</c></rc>
    <rc><c>Cu</c><c>   1</c></rc>
    <rc><c>Cu</c><c>   1</c></rc>
    <rc><c>Cu</c><c>   1</c></rc>
    <rc><c>Cu</c><c>   1</c></rc>
    <rc><c>Cu</c><c>   1</c></rc>
    <rc><c>Cu</c><c>   1</c></rc>
    <rc><c>Cu</c><c>   1</c></rc>
    <rc><c>Cu</c><c>   1</c></rc>
    <rc><c>Cu</c><c>   1</c></rc>
    <rc><c>Cu</c><c>   1</c></rc>
    <rc><c>Cu</c><c>   1</c></rc>
    <rc><c>Cu</c><c>   1</c></rc>
    <rc><c>Cu</c><c>   1</c></rc>
    <rc><c>Cu</c><c>   1</c></rc>
    <rc><c>Cu</c><c>   1</c></rc>
    <rc><c>Cu</c><c>   1</c></rc>
    <rc><c>Cu</c><c>   1</c></rc>
    <rc><c>Cu</c><c>   1</c></rc>
    <rc><c>Cu</c><c>   1</c></rc>
    <rc><c>Cu</c><c>   1</c></rc>
    <rc><c>Cu</c><c>   1</c></rc>
    <rc><c>Cu</c><c>   1</c></rc>
    <rc><c>Cu</c><c>   1</c></rc>
    <rc><c>Cu</c><c>   1</c></rc>
    <rc><c>Cu</c><c>   1</c></rc>
    <rc><c>Cu</c><c>   1</c></rc>
    <rc><c>Cu</c><c>   1</c></rc>
    <rc><c>Cu</c><c>   1</c></rc>
    <rc><c>Cu</c><c>   1</c></rc>
    <rc><c>Cu</c><c>   1</c></rc>
    <rc><c>Cu</c><c>   1</c></rc>
    <rc><c>Cu</c><c>   1</c></rc>
    <rc><c>Cu</c><c>   1</c></rc>
    <rc><c>H </c><c>   2</c></rc>
    <rc><c>H </c><c>   2</c></rc>
   </set>
  </array>
  <array name="atomtypes" >
   <dimension dim="1">type</dimension>
   <field type="int">atomspertype</field>
   <field type="string">element</field>
   <field>mass</field>
   <field>valence</field>
   <field type="string">pseudopotential</field>
   <set>
    <rc><c>  64</c><c>Cu</c><c>     63.54600000</c><c>     11.00000000</c><c>  PAW_PBE Cu 22Jun2005                  </c></rc>
    <rc><c>   2</c><c>H </c><c>      1.00000000</c><c>      1.00000000</c><c>  PAW_PBE H 15Jun2001                   </c></rc>
   </set>
  </array>
 </atominfo>
 <structure name="initialpos" >
  <crystal>
   <varray name="basis" >
    <v>       7.26000023       0.00000000       0.00000000 </v>
    <v>       0.00000000       7.26000023       0.00000000 </v>
    <v>       0.00000000       0.00000000      27.70499992 </v>
   </varray>
   <i name="volume">   1460.26414606 </i>
   <varray name="rec_basis" >
    <v>       0.13774104       0.00000000       0.00000000 </v>
    <v>       0.00000000       0.13774104       0.00000000 </v>
    <v>       0.00000000       0.00000000       0.03609457 </v>
   </varray>
  </crystal>
  <varray name="positions" >
   <v>       0.00000000       0.00000000       0.00000000 </v>
   <v>       0.00000000       0.50000000       0.00000000 </v>
   <v>       0.50000000       0.00000000       0.00000000 </v>
   <v>       0.50000000       0.50000000       0.00000000 </v>
   <v>       0.25000000       0.25000000       0.00000000 </v>
   <v>       0.25000000       0.75000000       0.00000000 </v>
   <v>       0.75000000       0.25000000       0.00000000 </v>
   <v>       0.75000000       0.75000000       0.00000000 </v>
   <v>       0.00000000       0.25000000       0.06551164 </v>
   <v>       0.00000000       0.75000000       0.06551164 </v>
   <v>       0.50000000       0.25000000       0.06551164 </v>
   <v>       0.50000000       0.75000000       0.06551164 </v>
   <v>       0.25000000       0.00000000       0.06551164 </v>
   <v>       0.25000000       0.50000000       0.06551164 </v>
   <v>       0.75000000       0.00000000       0.06551164 </v>
   <v>       0.75000000       0.50000000       0.06551164 </v>
   <v>       0.00000000       0.00000000       0.13164128 </v>
   <v>       0.00000000       0.50000000       0.13164128 </v>
   <v>       0.50000000       0.00000000       0.13164128 </v>
   <v>       0.50000000       0.50000000       0.13164128 </v>
   <v>       0.25000000       0.25000000       0.13164128 </v>
   <v>       0.25000000       0.75000000       0.13164128 </v>
   <v>       0.75000000       0.25000000       0.13164128 </v>
   <v>       0.75000000       0.75000000       0.13164128 </v>
   <v>       0.00000000       0.25000000       0.19677891 </v>
   <v>       0.00000000       0.75000000       0.19677891 </v>
   <v>       0.50000000       0.25000000       0.19677891 </v>
   <v>       0.50000000       0.75000000       0.19677891 </v>
   <v>       0.25000000       0.00000000       0.19677891 </v>
   <v>       0.25000000       0.50000000       0.19677891 </v>
   <v>       0.75000000       0.00000000       0.19677891 </v>
   <v>       0.75000000       0.50000000       0.19677891 </v>
   <v>       0.00000000       0.00000000       0.26184662 </v>
   <v>       0.00000000       0.50000000       0.26184662 </v>
   <v>       0.50000000       0.00000000       0.26184662 </v>
   <v>       0.50000000       0.50000000       0.26184662 </v>
   <v>       0.25000000       0.25000000       0.26184662 </v>
   <v>       0.25000000       0.75000000       0.26184662 </v>
   <v>       0.75000000       0.25000000       0.26184662 </v>
   <v>       0.75000000       0.75000000       0.26184662 </v>
   <v>       0.00000000       0.25000000       0.32758887 </v>
   <v>       0.00000000       0.75000000       0.32758887 </v>
   <v>       0.50000000       0.25000000       0.32758887 </v>
   <v>       0.50000000       0.75000000       0.32758887 </v>
   <v>       0.25000000       0.00000000       0.32758887 </v>
   <v>       0.25000000       0.50000000       0.32758887 </v>
   <v>       0.75000000       0.00000000       0.32758887 </v>
   <v>       0.75000000       0.50000000       0.32758887 </v>
   <v>       0.00000000       0.00000000       0.39185763 </v>
   <v>       0.00000000       0.50000000       0.39185763 </v>
   <v>       0.50000000       0.00000000       0.39185763 </v>
   <v>       0.50000000       0.50000000       0.39185763 </v>
   <v>       0.25000000       0.25000000       0.39185763 </v>
   <v>       0.25000000       0.75000000       0.39185763 </v>
   <v>       0.75000000       0.25000000       0.39185763 </v>
   <v>       0.75000000       0.75000000       0.39185763 </v>
   <v>       0.00000000       0.25000000       0.45475490 </v>
   <v>       0.00000000       0.75000000       0.45475490 </v>
   <v>       0.50000000       0.25000000       0.45475490 </v>
   <v>       0.50000000       0.75000000       0.45475490 </v>
   <v>       0.25000000       0.00000000       0.45475490 </v>
   <v>       0.25000000       0.50000000       0.45475490 </v>
   <v>       0.75000000       0.00000000       0.45475490 </v>
   <v>       0.75000000       0.50000000       0.45475490 </v>
   <v>       0.50000000       0.50000000       0.50150658 </v>
   <v>       0.50000000       0.60275482       0.50150658 </v>
  </varray>
 </structure>
 <calculation>
  <scstep>
   <time name="dav">   42.57   42.89</time>
   <time name="total">   42.71   43.03</time>
   <energy>
    <i name="alphaZ">   2059.53800561 </i>
    <i name="ewald"> 387821.31342748 </i>
    <i name="hartreedc">-475339.09480015 </i>
    <i name="XCdc">   2933.11436163 </i>
    <i name="pawpsdc">  78601.82840687 </i>
    <i name="pawaedc"> -85374.54502045 </i>
    <i name="eentropy">     -0.02598473 </i>
    <i name="bandstr">   7104.87223224 </i>
    <i name="atom">  89046.24623812 </i>
    <i name="e_fr_energy">   6853.24686661 </i>
    <i name="e_wo_entrp">   6853.27285134 </i>
    <i name="e_0_energy">   6853.25552819 </i>
   </energy>
  </scstep>
  <scstep>
   <time name="dav">   43.48   44.11</time>
   <time name="total">   43.48   44.12</time>
   <energy>
    <i name="e_fr_energy">    962.76028278 </i>
    <i name="e_wo_entrp">    962.76465691 </i>
    <i name="e_0_energy">    962.76174083 </i>
   </energy>
  </scstep>
  <scstep>
   <time name="dav">   42.72   43.20</time>
   <time name="total">   42.72   43.20</time>
   <energy>
    <i name="e_fr_energy">   -179.76549157 </i>
    <i name="e_wo_entrp">   -179.83760593 </i>
    <i name="e_0_energy">   -179.78952969 </i>
   </energy>
  </scstep>
  <scstep>
   <time name="dav">   46.48   46.77</time>
   <time name="total">   46.49   46.78</time>
   <energy>
    <i name="e_fr_energy">   -271.87779825 </i>
    <i name="e_wo_entrp">   -271.99088020 </i>
    <i name="e_0_energy">   -271.91549223 </i>
   </energy>
  </scstep>
  <scstep>
   <time name="dav">   46.05   46.33</time>
   <time name="total">   46.90   47.18</time>
   <energy>
    <i name="e_fr_energy">   -274.26362229 </i>
    <i name="e_wo_entrp">   -274.37869753 </i>
    <i name="e_0_energy">   -274.30198070 </i>
   </energy>
  </scstep>
  <scstep>
   <time name="dav">   46.96   47.55</time>
   <time name="total">   47.91   48.51</time>
   <energy>
    <i name="e_fr_energy">   -224.59555650 </i>
    <i name="e_wo_entrp">   -224.60778839 </i>
    <i name="e_0_energy">   -224.59963380 </i>
   </energy>
  </scstep>
  <scstep>
   <time name="dav">   46.91   47.34</time>
   <time name="total">   47.83   48.26</time>
   <energy>
    <i name="e_fr_energy">   -197.58121005 </i>
    <i name="e_wo_entrp">   -197.65125468 </i>
    <i name="e_0_energy">   -197.60455826 </i>
   </energy>
  </scstep>
  <scstep>
   <time name="dav">   48.41   48.91</time>
   <time name="total">   49.35   49.86</time>
   <energy>
    <i name="e_fr_energy">   -199.42496107 </i>
    <i name="e_wo_entrp">   -199.58856053 </i>
    <i name="e_0_energy">   -199.47949422 </i>
   </energy>
  </scstep>
  <scstep>
   <time name="dav">   52.65   53.06</time>
   <time name="total">   53.59   54.01</time>
   <energy>
    <i name="e_fr_energy">   -196.64074749 </i>
    <i name="e_wo_entrp">   -196.69654227 </i>
    <i name="e_0_energy">   -196.65934575 </i>
   </energy>
  </scstep>
  <scstep>
   <time name="dav">   58.20   58.58</time>
   <time name="total">   59.15   59.54</time>
   <energy>
    <i name="e_fr_energy">   -193.27226969 </i>
    <i name="e_wo_entrp">   -193.32484035 </i>
    <i name="e_0_energy">   -193.28979324 </i>
   </energy>
  </scstep>
  <scstep>
   <time name="dav">   59.11   59.47</time>
   <time name="total">   60.05   60.41</time>
   <energy>
    <i name="e_fr_energy">   -194.95219800 </i>
    <i name="e_wo_entrp">   -195.01589856 </i>
    <i name="e_0_energy">   -194.97343152 </i>
   </energy>
  </scstep>
  <scstep>
   <time name="dav">   46.86   47.16</time>
   <time name="total">   47.80   48.11</time>
   <energy>
    <i name="e_fr_energy">   -200.31389434 </i>
    <i name="e_wo_entrp">   -200.33157086 </i>
    <i name="e_0_energy">   -200.31978651 </i>
   </energy>
  </scstep>
  <scstep>
   <time name="dav">   49.88   50.29</time>
   <time name="total">   50.96   52.02</time>
   <energy>
    <i name="e_fr_energy">   -203.78640904 </i>
    <i name="e_wo_entrp">   -203.81655345 </i>
    <i name="e_0_energy">   -203.79645718 </i>
   </energy>
  </scstep>
  <scstep>
   <time name="dav">   49.05   49.50</time>
   <time name="total">   50.00   50.46</time>
   <energy>
    <i name="e_fr_energy">   -210.78962329 </i>
    <i name="e_wo_entrp">   -210.80775427 </i>
    <i name="e_0_energy">   -210.79566695 </i>
   </energy>
  </scstep>
  <scstep>
   <time name="dav">   50.91   51.31</time>
   <time name="total">   51.86   52.27</time>
   <energy>
    <i name="e_fr_energy">   -215.28064466 </i>
    <i name="e_wo_entrp">   -215.28742631 </i>
    <i name="e_0_energy">   -215.28290521 </i>
   </energy>
  </scstep>
  <scstep>
   <time name="dav">   49.69   49.99</time>
   <time name="total">   50.62   50.94</time>
   <energy>
    <i name="e_fr_energy">   -223.17764788 </i>
    <i name="e_wo_entrp">   -223.16406420 </i>
    <i name="e_0_energy">   -223.17311999 </i>
   </energy>
  </scstep>
  <scstep>
   <time name="dav">   48.37   48.66</time>
   <time name="total">   49.29   49.59</time>
   <energy>
    <i name="e_fr_energy">   -225.71044861 </i>
    <i name="e_wo_entrp">   -225.66069968 </i>
    <i name="e_0_energy">   -225.69386563 </i>
   </energy>
  </scstep>
  <scstep>
   <time name="dav">   45.71   46.22</time>
   <time name="total">   46.64   47.15</time>
   <energy>
    <i name="e_fr_energy">   -226.82828408 </i>
    <i name="e_wo_entrp">   -226.76649934 </i>
    <i name="e_0_energy">   -226.80768917 </i>
   </energy>
  </scstep>
  <scstep>
   <time name="dav">   53.33   53.72</time>
   <time name="total">   54.28   54.67</time>
   <energy>
    <i name="e_fr_energy">   -228.76528128 </i>
    <i name="e_wo_entrp">   -228.67161578 </i>
    <i name="e_0_energy">   -228.73405945 </i>
   </energy>
  </scstep>
  <scstep>
   <time name="dav">   49.58   50.24</time>
   <time name="total">   50.54   51.21</time>
   <energy>
    <i name="e_fr_energy">   -230.27499882 </i>
    <i name="e_wo_entrp">   -230.15734542 </i>
    <i name="e_0_energy">   -230.23578102 </i>
   </energy>
  </scstep>
  <scstep>
   <time name="dav">   52.50   52.90</time>
   <time name="total">   53.44   53.84</time>
   <energy>
    <i name="e_fr_energy">   -231.57019374 </i>
    <i name="e_wo_entrp">   -231.43271487 </i>
    <i name="e_0_energy">   -231.52436745 </i>
   </energy>
  </scstep>
  <scstep>
   <time name="dav">   55.32   55.66</time>
   <time name="total">   56.26   56.61</time>
   <energy>
    <i name="e_fr_energy">   -232.42901352 </i>
    <i name="e_wo_entrp">   -232.27588483 </i>
    <i name="e_0_energy">   -232.37797062 </i>
   </energy>
  </scstep>
  <scstep>
   <time name="dav">   49.35   49.65</time>
   <time name="total">   50.30   50.61</time>
   <energy>
    <i name="e_fr_energy">   -233.24779139 </i>
    <i name="e_wo_entrp">   -233.09106690 </i>
    <i name="e_0_energy">   -233.19554989 </i>
   </energy>
  </scstep>
  <scstep>
   <time name="dav">   55.37   56.12</time>
   <time name="total">   56.30   57.06</time>
   <energy>
    <i name="e_fr_energy">   -233.68649416 </i>
    <i name="e_wo_entrp">   -233.52191566 </i>
    <i name="e_0_energy">   -233.63163466 </i>
   </energy>
  </scstep>
  <scstep>
   <time name="dav">   47.64   48.08</time>
   <time name="total">   48.58   49.02</time>
   <energy>
    <i name="e_fr_energy">   -233.96179941 </i>
    <i name="e_wo_entrp">   -233.80111174 </i>
    <i name="e_0_energy">   -233.90823685 </i>
   </energy>
  </scstep>
  <scstep>
   <time name="dav">   55.41   55.89</time>
   <time name="total">   56.34   56.84</time>
   <energy>
    <i name="e_fr_energy">   -234.20868170 </i>
    <i name="e_wo_entrp">   -234.04939918 </i>
    <i name="e_0_energy">   -234.15558753 </i>
   </energy>
  </scstep>
  <scstep>
   <time name="dav">   51.48   52.14</time>
   <time name="total">   52.41   53.07</time>
   <energy>
    <i name="e_fr_energy">   -234.45855981 </i>
    <i name="e_wo_entrp">   -234.29789128 </i>
    <i name="e_0_energy">   -234.40500364 </i>
   </energy>
  </scstep>
  <scstep>
   <time name="dav">   50.75   51.07</time>
   <time name="total">   51.71   52.03</time>
   <energy>
    <i name="e_fr_energy">   -234.64802325 </i>
    <i name="e_wo_entrp">   -234.48725665 </i>
    <i name="e_0_energy">   -234.59443438 </i>
   </energy>
  </scstep>
  <scstep>
   <time name="dav">   50.35   51.02</time>
   <time name="total">   51.31   51.98</time>
   <energy>
    <i name="e_fr_energy">   -234.71073118 </i>
    <i name="e_wo_entrp">   -234.55132412 </i>
    <i name="e_0_energy">   -234.65759550 </i>
   </energy>
  </scstep>
  <scstep>
   <time name="dav">   38.03   38.40</time>
   <time name="total">   38.97   39.35</time>
   <energy>
    <i name="e_fr_energy">   -234.72857126 </i>
    <i name="e_wo_entrp">   -234.56857506 </i>
    <i name="e_0_energy">   -234.67523919 </i>
   </energy>
  </scstep>
  <scstep>
   <time name="dav">   32.76   33.02</time>
   <time name="total">   33.70   33.97</time>
   <energy>
    <i name="e_fr_energy">   -234.73317872 </i>
    <i name="e_wo_entrp">   -234.57318886 </i>
    <i name="e_0_energy">   -234.67984877 </i>
   </energy>
  </scstep>
  <scstep>
   <time name="dav">   32.18   32.40</time>
   <time name="total">   33.12   33.35</time>
   <energy>
    <i name="e_fr_energy">   -234.73409814 </i>
    <i name="e_wo_entrp">   -234.57426531 </i>
    <i name="e_0_energy">   -234.68082053 </i>
   </energy>
  </scstep>
  <scstep>
   <time name="dav">   32.19   32.60</time>
   <time name="total">   33.13   33.56</time>
   <energy>
    <i name="e_fr_energy">   -234.73444280 </i>
    <i name="e_wo_entrp">   -234.57460321 </i>
    <i name="e_0_energy">   -234.68116294 </i>
   </energy>
  </scstep>
  <scstep>
   <time name="dav">   31.85   32.08</time>
   <time name="total">   32.78   33.02</time>
   <energy>
    <i name="e_fr_energy">   -234.73477215 </i>
    <i name="e_wo_entrp">   -234.57483877 </i>
    <i name="e_0_energy">   -234.68146102 </i>
   </energy>
  </scstep>
  <scstep>
   <time name="dav">   30.62   30.80</time>
   <time name="total">   31.56   31.75</time>
   <energy>
    <i name="e_fr_energy">   -234.73505615 </i>
    <i name="e_wo_entrp">   -234.57513448 </i>
    <i name="e_0_energy">   -234.68174893 </i>
   </energy>
  </scstep>
  <scstep>
   <time name="dav">   31.11   31.30</time>
   <time name="total">   32.03   32.23</time>
   <energy>
    <i name="e_fr_energy">   -234.73560009 </i>
    <i name="e_wo_entrp">   -234.57567906 </i>
    <i name="e_0_energy">   -234.68229308 </i>
   </energy>
  </scstep>
  <scstep>
   <time name="dav">   31.41   31.62</time>
   <time name="total">   32.36   32.57</time>
   <energy>
    <i name="e_fr_energy">   -234.73614634 </i>
    <i name="e_wo_entrp">   -234.57621362 </i>
    <i name="e_0_energy">   -234.68283543 </i>
   </energy>
  </scstep>
  <scstep>
   <time name="dav">   31.99   32.23</time>
   <time name="total">   32.11   32.36</time>
   <energy>
    <i name="alphaZ">   2059.53800561 </i>
    <i name="ewald"> 387821.31342748 </i>
    <i name="hartreedc">-474362.31757302 </i>
    <i name="XCdc">   2859.01874632 </i>
    <i name="pawpsdc">  83707.65533006 </i>
    <i name="pawaedc"> -90600.31482755 </i>
    <i name="eentropy">     -0.15991905 </i>
    <i name="bandstr">   -765.71574344 </i>
    <i name="atom">  89046.24623812 </i>
    <i name="e_fr_energy">   -234.73631548 </i>
    <i name="e_wo_entrp">   -234.57639643 </i>
    <i name="e_0_energy">   -234.68300913 </i>
   </energy>
  </scstep>
  <structure>
   <crystal>
    <varray name="basis" >
     <v>       7.26000023       0.00000000       0.00000000 </v>
     <v>       0.00000000       7.26000023       0.00000000 </v>
     <v>       0.00000000       0.00000000      27.70499992 </v>
    </varray>
    <i name="volume">   1460.26414606 </i>
    <varray name="rec_basis" >
     <v>       0.13774104       0.00000000       0.00000000 </v>
     <v>       0.00000000       0.13774104       0.00000000 </v>
     <v>       0.00000000       0.00000000       0.03609457 </v>
    </varray>
   </crystal>
   <varray name="positions" >
    <v>       0.00000000       0.00000000       0.00000000 </v>
    <v>       0.00000000       0.50000000       0.00000000 </v>
    <v>       0.50000000       0.00000000       0.00000000 </v>
    <v>       0.50000000       0.50000000       0.00000000 </v>
    <v>       0.25000000       0.25000000       0.00000000 </v>
    <v>       0.25000000       0.75000000       0.00000000 </v>
    <v>       0.75000000       0.25000000       0.00000000 </v>
    <v>       0.75000000       0.75000000       0.00000000 </v>
    <v>       0.00000000       0.25000000       0.06551164 </v>
    <v>       0.00000000       0.75000000       0.06551164 </v>
    <v>       0.50000000       0.25000000       0.06551164 </v>
    <v>       0.50000000       0.75000000       0.06551164 </v>
    <v>       0.25000000       0.00000000       0.06551164 </v>
    <v>       0.25000000       0.50000000       0.06551164 </v>
    <v>       0.75000000       0.00000000       0.06551164 </v>
    <v>       0.75000000       0.50000000       0.06551164 </v>
    <v>       0.00000000       0.00000000       0.13164128 </v>
    <v>       0.00000000       0.50000000       0.13164128 </v>
    <v>       0.50000000       0.00000000       0.13164128 </v>
    <v>       0.50000000       0.50000000       0.13164128 </v>
    <v>       0.25000000       0.25000000       0.13164128 </v>
    <v>       0.25000000       0.75000000       0.13164128 </v>
    <v>       0.75000000       0.25000000       0.13164128 </v>
    <v>       0.75000000       0.75000000       0.13164128 </v>
    <v>       0.00000000       0.25000000       0.19677891 </v>
    <v>       0.00000000       0.75000000       0.19677891 </v>
    <v>       0.50000000       0.25000000       0.19677891 </v>
    <v>       0.50000000       0.75000000       0.19677891 </v>
    <v>       0.25000000       0.00000000       0.19677891 </v>
    <v>       0.25000000       0.50000000       0.19677891 </v>
    <v>       0.75000000       0.00000000       0.19677891 </v>
    <v>       0.75000000       0.50000000       0.19677891 </v>
    <v>       0.00000000       0.00000000       0.26184662 </v>
    <v>       0.00000000       0.50000000       0.26184662 </v>
    <v>       0.50000000       0.00000000       0.26184662 </v>
    <v>       0.50000000       0.50000000       0.26184662 </v>
    <v>       0.25000000       0.25000000       0.26184662 </v>
    <v>       0.25000000       0.75000000       0.26184662 </v>
    <v>       0.75000000       0.25000000       0.26184662 </v>
    <v>       0.75000000       0.75000000       0.26184662 </v>
    <v>       0.00000000       0.25000000       0.32758887 </v>
    <v>       0.00000000       0.75000000       0.32758887 </v>
    <v>       0.50000000       0.25000000       0.32758887 </v>
    <v>       0.50000000       0.75000000       0.32758887 </v>
    <v>       0.25000000       0.00000000       0.32758887 </v>
    <v>       0.25000000       0.50000000       0.32758887 </v>
    <v>       0.75000000       0.00000000       0.32758887 </v>
    <v>       0.75000000       0.50000000       0.32758887 </v>
    <v>       0.00000000       0.00000000       0.39185763 </v>
    <v>       0.00000000       0.50000000       0.39185763 </v>
    <v>       0.50000000       0.00000000       0.39185763 </v>
    <v>       0.50000000       0.50000000       0.39185763 </v>
    <v>       0.25000000       0.25000000       0.39185763 </v>
    <v>       0.25000000       0.75000000       0.39185763 </v>
    <v>       0.75000000       0.25000000       0.39185763 </v>
    <v>       0.75000000       0.75000000       0.39185763 </v>
    <v>       0.00000000       0.25000000       0.45475490 </v>
    <v>       0.00000000       0.75000000       0.45475490 </v>
    <v>       0.50000000       0.25000000       0.45475490 </v>
    <v>       0.50000000       0.75000000       0.45475490 </v>
    <v>       0.25000000       0.00000000       0.45475490 </v>
    <v>       0.25000000       0.50000000       0.45475490 </v>
    <v>       0.75000000       0.00000000       0.45475490 </v>
    <v>       0.75000000       0.50000000       0.45475490 </v>
    <v>       0.50000000       0.50000000       0.50150658 </v>
    <v>       0.50000000       0.60275482       0.50150658 </v>
   </varray>
  </structure>
  <varray name="forces" >
   <v>       0.00000000      -0.00513572       0.30683824 </v>
   <v>       0.00000000       0.00787617       0.31258826 </v>
   <v>       0.00000000       0.00325106       0.30815537 </v>
   <v>       0.00000000      -0.00835352       0.29880864 </v>
   <v>       0.02000838       0.01109849       0.31944360 </v>
   <v>       0.00811945      -0.00993789       0.32119355 </v>
   <v>      -0.02000838       0.01109849       0.31944360 </v>
   <v>      -0.00811945      -0.00993789       0.32119355 </v>
   <v>       0.00000000       0.00420255      -0.06027056 </v>
   <v>       0.00000000      -0.00413884      -0.06409817 </v>
   <v>       0.00000000      -0.00109523      -0.06751067 </v>
   <v>       0.00000000       0.02575380      -0.05774189 </v>
   <v>       0.00481818      -0.00840715      -0.05995211 </v>
   <v>      -0.01222450      -0.00397001      -0.06333972 </v>
   <v>      -0.00481818      -0.00840715      -0.05995211 </v>
   <v>       0.01222450      -0.00397001      -0.06333972 </v>
   <v>       0.00000000      -0.01129227      -0.06045388 </v>
   <v>       0.00000000       0.00277173      -0.06702378 </v>
   <v>       0.00000000      -0.00684953      -0.06783860 </v>
   <v>       0.00000000      -0.01033944      -0.08819853 </v>
   <v>       0.01960067       0.01631464      -0.05177137 </v>
   <v>       0.01058977      -0.00377316      -0.05456086 </v>
   <v>      -0.01960067       0.01631464      -0.05177137 </v>
   <v>      -0.01058977      -0.00377316      -0.05456086 </v>
   <v>       0.00000000       0.01132626       0.03564898 </v>
   <v>       0.00000000      -0.00993785       0.05619380 </v>
   <v>       0.00000000       0.01573087       0.03894635 </v>
   <v>       0.00000000      -0.00975100       0.01818102 </v>
   <v>       0.01173887      -0.00720988       0.05041625 </v>
   <v>       0.01214076       0.00384609       0.03520325 </v>
   <v>      -0.01173887      -0.00720988       0.05041625 </v>
   <v>      -0.01214076       0.00384609       0.03520325 </v>
   <v>       0.00000000       0.00337707       0.01480297 </v>
   <v>       0.00000000      -0.00834551      -0.03057153 </v>
   <v>       0.00000000      -0.01214925      -0.03549142 </v>
   <v>       0.00000000      -0.00790421       0.04188937 </v>
   <v>       0.00581498       0.01060002       0.02168187 </v>
   <v>       0.01288160       0.00193040       0.03926202 </v>
   <v>      -0.00581498       0.01060002       0.02168187 </v>
   <v>      -0.01288160       0.00193040       0.03926202 </v>
   <v>       0.00000000      -0.01096526      -0.20200519 </v>
   <v>       0.00000000       0.00023656      -0.21906236 </v>
   <v>       0.00000000      -0.05121688      -0.22060489 </v>
   <v>       0.00000000       0.01995175      -0.19373479 </v>
   <v>      -0.00948535       0.01424738      -0.19195633 </v>
   <v>      -0.03628765       0.00431840      -0.19836483 </v>
   <v>       0.00948535       0.01424738      -0.19195633 </v>
   <v>       0.03628765       0.00431840      -0.19836483 </v>
   <v>       0.00000000       0.00374421      -0.06651252 </v>
   <v>       0.00000000       0.01955202       0.02306160 </v>
   <v>       0.00000000      -0.06135265      -0.00687607 </v>
   <v>       0.00000000      -0.08745180      -0.42846603 </v>
   <v>       0.02897441       0.03873310       0.02352726 </v>
   <v>       0.01271176       0.00337829      -0.01611969 </v>
   <v>      -0.02897441       0.03873310       0.02352726 </v>
   <v>      -0.01271176       0.00337829      -0.01611969 </v>
   <v>       0.00000000       0.01072038      -0.00185329 </v>
   <v>       0.00000000      -0.01165066      -0.02830981 </v>
   <v>       0.00000000      -0.30678382      -0.07060029 </v>
   <v>       0.00000000       0.69825802      -0.45580702 </v>
   <v>       0.01488086       0.00012613       0.00255575 </v>
   <v>      -0.35313328      -0.09609343      -0.11029829 </v>
   <v>      -0.01488086       0.00012613       0.00255575 </v>
   <v>       0.35313328      -0.09609343      -0.11029829 </v>
   <v>       0.00000000      -2.26284556       0.06250525 </v>
   <v>       0.00000000       2.11040374       0.84157073 </v>
  </varray>
  <varray name="stress" >
   <v>     -45.19330620       0.00000000       0.00000000 </v>
   <v>       0.00000000     -42.45821534      -0.11718335 </v>
   <v>       0.00000000      -0.11718365     -23.73475310 </v>
  </varray>
  <energy>
   <i name="e_fr_energy">   -261.17527032 </i>
   <i name="e_wo_entrp">   -261.01535127 </i>
   <i name="e_0_energy">   -261.12196397 </i>
  </energy>
  <time name="totalsc"> 1857.89 1874.79</time>
 </calculation>
 <calculation>
  <scstep>
   <time name="dav">   44.05   44.43</time>
   <time name="total">   44.98   45.37</time>
   <energy>
    <i name="alphaZ">   2059.53800561 </i>
    <i name="ewald"> 388787.94701695 </i>
    <i name="hartreedc">-475330.15812230 </i>
    <i name="XCdc">   2859.07030950 </i>
    <i name="pawpsdc">  83707.58396333 </i>
    <i name="pawaedc"> -90600.24530944 </i>
    <i name="eentropy">     -0.14744552 </i>
    <i name="bandstr">   -764.63250657 </i>
    <i name="atom">  89046.24623812 </i>
    <i name="e_fr_energy">   -234.79785033 </i>
    <i name="e_wo_entrp">   -234.65040481 </i>
    <i name="e_0_energy">   -234.74870182 </i>
   </energy>
  </scstep>
  <scstep>
   <time name="dav">   59.43   60.24</time>
   <time name="total">   60.37   61.19</time>
   <energy>
    <i name="e_fr_energy">   -234.87706779 </i>
    <i name="e_wo_entrp">   -234.72846130 </i>
    <i name="e_0_energy">   -234.82753229 </i>
   </energy>
  </scstep>
  <scstep>
   <time name="dav">   46.53   46.83</time>
   <time name="total">   47.47   47.78</time>
   <energy>
    <i name="e_fr_energy">   -234.87326803 </i>
    <i name="e_wo_entrp">   -234.72514875 </i>
    <i name="e_0_energy">   -234.82389493 </i>
   </energy>
  </scstep>
  <scstep>
   <time name="dav">   48.03   48.33</time>
   <time name="total">   48.97   49.27</time>
   <energy>
    <i name="e_fr_energy">   -234.90098776 </i>
    <i name="e_wo_entrp">   -234.75274977 </i>
    <i name="e_0_energy">   -234.85157510 </i>
   </energy>
  </scstep>
  <scstep>
   <time name="dav">   53.95   54.42</time>
   <time name="total">   54.90   55.37</time>
   <energy>
    <i name="e_fr_energy">   -234.87083753 </i>
    <i name="e_wo_entrp">   -234.72501787 </i>
    <i name="e_0_energy">   -234.82223097 </i>
   </energy>
  </scstep>
  <scstep>
   <time name="dav">   70.87   71.42</time>
   <time name="total">   72.32   73.01</time>
   <energy>
    <i name="e_fr_energy">   -234.86613427 </i>
    <i name="e_wo_entrp">   -234.71486865 </i>
    <i name="e_0_energy">   -234.81571240 </i>
   </energy>
  </scstep>
  <scstep>
   <time name="dav">   56.04   56.59</time>
   <time name="total">   56.97   57.53</time>
   <energy>
    <i name="e_fr_energy">   -234.86263319 </i>
    <i name="e_wo_entrp">   -234.71155360 </i>
    <i name="e_0_energy">   -234.81227333 </i>
   </energy>
  </scstep>
  <scstep>
   <time name="dav">   45.20   45.51</time>
   <time name="total">   46.14   46.46</time>
   <energy>
    <i name="e_fr_energy">   -234.86335941 </i>
    <i name="e_wo_entrp">   -234.71264842 </i>
    <i name="e_0_energy">   -234.81312241 </i>
   </energy>
  </scstep>
  <scstep>
   <time name="dav">   43.62   43.88</time>
   <time name="total">   44.52   44.80</time>
   <energy>
    <i name="e_fr_energy">   -234.86345040 </i>
    <i name="e_wo_entrp">   -234.71289340 </i>
    <i name="e_0_energy">   -234.81326474 </i>
   </energy>
  </scstep>
  <scstep>
   <time name="dav">   30.66   30.85</time>
   <time name="total">   30.79   30.98</time>
   <energy>
    <i name="alphaZ">   2059.53800561 </i>
    <i name="ewald"> 388787.94701695 </i>
    <i name="hartreedc">-475314.73952931 </i>
    <i name="XCdc">   2858.78632923 </i>
    <i name="pawpsdc">  83722.41616813 </i>
    <i name="pawaedc"> -90615.52060415 </i>
    <i name="eentropy">     -0.15065239 </i>
    <i name="bandstr">   -779.38643900 </i>
    <i name="atom">  89046.24623812 </i>
    <i name="e_fr_energy">   -234.86346683 </i>
    <i name="e_wo_entrp">   -234.71281444 </i>
    <i name="e_0_energy">   -234.81324936 </i>
   </energy>
  </scstep>
  <structure>
   <crystal>
    <varray name="basis" >
     <v>       7.26000023       0.00000000       0.00000000 </v>
     <v>       0.00000000       7.26000023       0.00000000 </v>
     <v>       0.00000000       0.00000000      27.70499992 </v>
    </varray>
    <i name="volume">   1460.26414606 </i>
    <varray name="rec_basis" >
     <v>       0.13774104       0.00000000       0.00000000 </v>
     <v>       0.00000000       0.13774104       0.00000000 </v>
     <v>       0.00000000       0.00000000       0.03609457 </v>
    </varray>
   </crystal>
   <varray name="positions" >
    <v>       0.00000000      -0.00003413       0.00053430 </v>
    <v>       0.00000000       0.50005234       0.00054431 </v>
    <v>       0.50000000       0.00002160       0.00053659 </v>
    <v>       0.50000000       0.49994449       0.00052031 </v>
    <v>       0.25013296       0.25007375       0.00055625 </v>
    <v>       0.25005395       0.74993396       0.00055929 </v>
    <v>       0.74986704       0.25007375       0.00055625 </v>
    <v>       0.74994605       0.74993396       0.00055929 </v>
    <v>       0.00000000       0.25002793       0.06540669 </v>
    <v>       0.00000000       0.74997250       0.06540003 </v>
    <v>       0.50000000       0.24999272       0.06539409 </v>
    <v>       0.50000000       0.75017113       0.06541110 </v>
    <v>       0.25003202      -0.00005587       0.06540725 </v>
    <v>       0.24991877       0.49997362       0.06540135 </v>
    <v>       0.74996798      -0.00005587       0.06540725 </v>
    <v>       0.75008123       0.49997362       0.06540135 </v>
    <v>       0.00000000      -0.00007504       0.13153601 </v>
    <v>       0.00000000       0.50001842       0.13152457 </v>
    <v>       0.50000000      -0.00004552       0.13152315 </v>
    <v>       0.50000000       0.49993129       0.13148770 </v>
    <v>       0.25013025       0.25010841       0.13155113 </v>
    <v>       0.25007037       0.74997493       0.13154627 </v>
    <v>       0.74986975       0.25010841       0.13155113 </v>
    <v>       0.74992963       0.74997493       0.13154627 </v>
    <v>       0.00000000       0.25007526       0.19684099 </v>
    <v>       0.00000000       0.74993396       0.19687676 </v>
    <v>       0.50000000       0.25010453       0.19684673 </v>
    <v>       0.50000000       0.74993520       0.19681057 </v>
    <v>       0.25007800      -0.00004791       0.19686670 </v>
    <v>       0.25008068       0.50002556       0.19684021 </v>
    <v>       0.74992200      -0.00004791       0.19686670 </v>
    <v>       0.74991932       0.50002556       0.19684021 </v>
    <v>       0.00000000       0.00002244       0.26187240 </v>
    <v>       0.00000000       0.49994454       0.26179339 </v>
    <v>       0.50000000      -0.00008073       0.26178482 </v>
    <v>       0.50000000       0.49994748       0.26191957 </v>
    <v>       0.25003864       0.25007044       0.26188438 </v>
    <v>       0.25008560       0.75001283       0.26191499 </v>
    <v>       0.74996136       0.25007044       0.26188438 </v>
    <v>       0.74991440       0.75001283       0.26191499 </v>
    <v>       0.00000000       0.24992714       0.32723712 </v>
    <v>       0.00000000       0.75000157       0.32720742 </v>
    <v>       0.50000000       0.24965966       0.32720473 </v>
    <v>       0.50000000       0.75013258       0.32725152 </v>
    <v>       0.24993697       0.00009467       0.32725462 </v>
    <v>       0.24975887       0.50002870       0.32724346 </v>
    <v>       0.75006303       0.00009467       0.32725462 </v>
    <v>       0.75024113       0.50002870       0.32724346 </v>
    <v>       0.00000000       0.00002488       0.39174181 </v>
    <v>       0.00000000       0.50012992       0.39189778 </v>
    <v>       0.50000000      -0.00040769       0.39184565 </v>
    <v>       0.50000000       0.49941888       0.39111154 </v>
    <v>       0.25019253       0.25025738       0.39189859 </v>
    <v>       0.25008447       0.75002245       0.39182956 </v>
    <v>       0.74980747       0.25025738       0.39189859 </v>
    <v>       0.74991553       0.75002245       0.39182956 </v>
    <v>       0.00000000       0.25007124       0.45475167 </v>
    <v>       0.00000000       0.74992258       0.45470560 </v>
    <v>       0.50000000       0.24796142       0.45463196 </v>
    <v>       0.50000000       0.75463992       0.45396120 </v>
    <v>       0.25009888       0.00000084       0.45475935 </v>
    <v>       0.24765343       0.49936146       0.45456283 </v>
    <v>       0.74990112       0.00000084       0.45475935 </v>
    <v>       0.75234657       0.49936146       0.45456283 </v>
    <v>       0.50000000       0.48496341       0.50161542 </v>
    <v>       0.50000000       0.61677844       0.50297200 </v>
   </varray>
  </structure>
  <varray name="forces" >
   <v>       0.00000000      -0.00281514       0.24754781 </v>
   <v>       0.00000000       0.00392301       0.24509501 </v>
   <v>       0.00000000       0.00218071       0.23791091 </v>
   <v>       0.00000000      -0.00261024       0.22935036 </v>
   <v>       0.01582444       0.00799825       0.25016243 </v>
   <v>       0.01043532      -0.00836062       0.25061736 </v>
   <v>      -0.01582444       0.00799825       0.25016243 </v>
   <v>      -0.01043532      -0.00836062       0.25061736 </v>
   <v>       0.00000000       0.00093895      -0.00496478 </v>
   <v>       0.00000000      -0.00163345      -0.00858862 </v>
   <v>       0.00000000      -0.00239811      -0.01009146 </v>
   <v>       0.00000000       0.01665836      -0.00465896 </v>
   <v>       0.00152157      -0.00427090      -0.00378537 </v>
   <v>      -0.00849806      -0.00254808      -0.00674552 </v>
   <v>      -0.00152157      -0.00427090      -0.00378537 </v>
   <v>       0.00849806      -0.00254808      -0.00674552 </v>
   <v>       0.00000000      -0.00510304      -0.03625244 </v>
   <v>       0.00000000       0.00386681      -0.04013815 </v>
   <v>       0.00000000      -0.00101133      -0.04039431 </v>
   <v>       0.00000000      -0.00431380      -0.05705429 </v>
   <v>       0.01318156       0.00563596      -0.03289899 </v>
   <v>       0.00654938      -0.00248825      -0.03504600 </v>
   <v>      -0.01318156       0.00563596      -0.03289899 </v>
   <v>      -0.00654938      -0.00248825      -0.03504600 </v>
   <v>       0.00000000       0.00805538       0.00930253 </v>
   <v>       0.00000000      -0.00761781       0.02591136 </v>
   <v>       0.00000000       0.01363037       0.01307983 </v>
   <v>       0.00000000      -0.00829675      -0.00154266 </v>
   <v>       0.00818737      -0.00518687       0.02388524 </v>
   <v>       0.00864929       0.00269434       0.01867419 </v>
   <v>      -0.00818737      -0.00518687       0.02388524 </v>
   <v>      -0.00864929       0.00269434       0.01867419 </v>
   <v>       0.00000000       0.00346446      -0.01168469 </v>
   <v>       0.00000000      -0.00466962      -0.04047203 </v>
   <v>       0.00000000      -0.00656478      -0.04848862 </v>
   <v>       0.00000000      -0.00153200       0.00379088 </v>
   <v>       0.00762436       0.00556567      -0.01123349 </v>
   <v>       0.01377619      -0.00117184       0.00149376 </v>
   <v>      -0.00762436       0.00556567      -0.01123349 </v>
   <v>      -0.01377619      -0.00117184       0.00149376 </v>
   <v>       0.00000000      -0.00106759      -0.13715928 </v>
   <v>       0.00000000      -0.00071350      -0.15793882 </v>
   <v>       0.00000000      -0.05529623      -0.16214330 </v>
   <v>       0.00000000       0.03299437      -0.13694837 </v>
   <v>      -0.00819388       0.01146311      -0.12088324 </v>
   <v>      -0.04725757      -0.00224962      -0.13186593 </v>
   <v>       0.00819388       0.01146311      -0.12088324 </v>
   <v>       0.04725757      -0.00224962      -0.13186593 </v>
   <v>       0.00000000       0.00675903      -0.07112364 </v>
   <v>       0.00000000       0.01717803      -0.03782649 </v>
   <v>       0.00000000       0.02129042      -0.12279151 </v>
   <v>       0.00000000      -0.04520907      -0.30032861 </v>
   <v>       0.01774570       0.00426862      -0.03507358 </v>
   <v>      -0.01214049      -0.00179992      -0.08045304 </v>
   <v>      -0.01774570       0.00426862      -0.03507358 </v>
   <v>       0.01214049      -0.00179992      -0.08045304 </v>
   <v>       0.00000000      -0.03075483      -0.01981000 </v>
   <v>       0.00000000       0.01565231      -0.04942765 </v>
   <v>       0.00000000      -0.00439424       0.11456061 </v>
   <v>       0.00000000       0.21244441      -0.02508455 </v>
   <v>      -0.03242693       0.01320909      -0.00945524 </v>
   <v>      -0.02185861      -0.03133789       0.05619430 </v>
   <v>       0.03242693       0.01320909      -0.00945524 </v>
   <v>       0.02185861      -0.03133789       0.05619430 </v>
   <v>       0.00000000       0.70406703      -0.23363534 </v>
   <v>       0.00000000      -0.85994418       0.36482549 </v>
  </varray>
  <varray name="stress" >
   <v>     -44.94978173       0.00000000       0.00000000 </v>
   <v>       0.00000000     -44.68607204      -0.23600244 </v>
   <v>       0.00000000      -0.23600236     -23.69251922 </v>
  </varray>
  <energy>
   <i name="e_fr_energy">   -261.38940630 </i>
   <i name="e_wo_entrp">   -261.23875392 </i>
   <i name="e_0_energy">   -261.33918884 </i>
  </energy>
  <time name="totalsc">  596.45  601.77</time>
 </calculation>
 <calculation>
  <scstep>
   <time name="dav">   43.92   44.31</time>
   <time name="total">   44.84   45.24</time>
   <energy>
    <i name="alphaZ">   2059.53800561 </i>
    <i name="ewald"> 388599.32459415 </i>
    <i name="hartreedc">-475126.06601138 </i>
    <i name="XCdc">   2858.76910489 </i>
    <i name="pawpsdc">  83722.91050709 </i>
    <i name="pawaedc"> -90616.05451648 </i>
    <i name="eentropy">     -0.15361933 </i>
    <i name="bandstr">   -779.39664895 </i>
    <i name="atom">  89046.24623812 </i>
    <i name="e_fr_energy">   -234.88234628 </i>
    <i name="e_wo_entrp">   -234.72872695 </i>
    <i name="e_0_energy">   -234.83113984 </i>
   </energy>
  </scstep>
  <scstep>
   <time name="dav">   62.97   63.44</time>
   <time name="total">   63.91   64.38</time>
   <energy>
    <i name="e_fr_energy">   -234.88675369 </i>
    <i name="e_wo_entrp">   -234.73486249 </i>
    <i name="e_0_energy">   -234.83612329 </i>
   </energy>
  </scstep>
  <scstep>
   <time name="dav">   46.33   46.62</time>
   <time name="total">   47.27   47.57</time>
   <energy>
    <i name="e_fr_energy">   -234.88727761 </i>
    <i name="e_wo_entrp">   -234.73343675 </i>
    <i name="e_0_energy">   -234.83599732 </i>
   </energy>
  </scstep>
  <scstep>
   <time name="dav">   45.34   45.64</time>
   <time name="total">   46.26   46.56</time>
   <energy>
    <i name="e_fr_energy">   -234.88615078 </i>
    <i name="e_wo_entrp">   -234.73352169 </i>
    <i name="e_0_energy">   -234.83527441 </i>
   </energy>
  </scstep>
  <scstep>
   <time name="dav">   45.73   46.31</time>
   <time name="total">   45.86   46.44</time>
   <energy>
    <i name="alphaZ">   2059.53800561 </i>
    <i name="ewald"> 388599.32459415 </i>
    <i name="hartreedc">-475129.78714941 </i>
    <i name="XCdc">   2858.81173540 </i>
    <i name="pawpsdc">  83720.02669669 </i>
    <i name="pawaedc"> -90613.09235636 </i>
    <i name="eentropy">     -0.15245184 </i>
    <i name="bandstr">   -775.80162874 </i>
    <i name="atom">  89046.24623812 </i>
    <i name="e_fr_energy">   -234.88631638 </i>
    <i name="e_wo_entrp">   -234.73386454 </i>
    <i name="e_0_energy">   -234.83549910 </i>
   </energy>
  </scstep>
  <structure>
   <crystal>
    <varray name="basis" >
     <v>       7.26000023       0.00000000       0.00000000 </v>
     <v>       0.00000000       7.26000023       0.00000000 </v>
     <v>       0.00000000       0.00000000      27.70499992 </v>
    </varray>
    <i name="volume">   1460.26414606 </i>
    <varray name="rec_basis" >
     <v>       0.13774104       0.00000000       0.00000000 </v>
     <v>       0.00000000       0.13774104       0.00000000 </v>
     <v>       0.00000000       0.00000000       0.03609457 </v>
    </varray>
   </crystal>
   <varray name="positions" >
    <v>       0.00000000      -0.00002749       0.00043034 </v>
    <v>       0.00000000       0.50004215       0.00043840 </v>
    <v>       0.50000000       0.00001740       0.00043219 </v>
    <v>       0.50000000       0.49995529       0.00041908 </v>
    <v>       0.25010709       0.25005940       0.00044802 </v>
    <v>       0.25004346       0.74994681       0.00045047 </v>
    <v>       0.74989291       0.25005940       0.00044802 </v>
    <v>       0.74995654       0.74994681       0.00045047 </v>
    <v>       0.00000000       0.25002249       0.06542711 </v>
    <v>       0.00000000       0.74997785       0.06542174 </v>
    <v>       0.50000000       0.24999414       0.06541696 </v>
    <v>       0.50000000       0.75013784       0.06543066 </v>
    <v>       0.25002579      -0.00004500       0.06542756 </v>
    <v>       0.24993457       0.49997875       0.06542281 </v>
    <v>       0.74997421      -0.00004500       0.06542756 </v>
    <v>       0.75006543       0.49997875       0.06542281 </v>
    <v>       0.00000000      -0.00006044       0.13155650 </v>
    <v>       0.00000000       0.50001483       0.13154728 </v>
    <v>       0.50000000      -0.00003666       0.13154614 </v>
    <v>       0.50000000       0.49994466       0.13151758 </v>
    <v>       0.25010490       0.25008732       0.13156867 </v>
    <v>       0.25005668       0.74997981       0.13156476 </v>
    <v>       0.74989510       0.25008732       0.13156867 </v>
    <v>       0.74994332       0.74997981       0.13156476 </v>
    <v>       0.00000000       0.25006062       0.19682891 </v>
    <v>       0.00000000       0.74994681       0.19685773 </v>
    <v>       0.50000000       0.25008419       0.19683354 </v>
    <v>       0.50000000       0.74994781       0.19680441 </v>
    <v>       0.25006283      -0.00003859       0.19684962 </v>
    <v>       0.25006498       0.50002058       0.19682829 </v>
    <v>       0.74993717      -0.00003859       0.19684962 </v>
    <v>       0.74993502       0.50002058       0.19682829 </v>
    <v>       0.00000000       0.00001807       0.26186739 </v>
    <v>       0.00000000       0.49995533       0.26180375 </v>
    <v>       0.50000000      -0.00006502       0.26179685 </v>
    <v>       0.50000000       0.49995770       0.26190537 </v>
    <v>       0.25003112       0.25005673       0.26187703 </v>
    <v>       0.25006894       0.75001033       0.26190169 </v>
    <v>       0.74996888       0.25005673       0.26187703 </v>
    <v>       0.74993106       0.75001033       0.26190169 </v>
    <v>       0.00000000       0.24994131       0.32730556 </v>
    <v>       0.00000000       0.75000127       0.32728164 </v>
    <v>       0.50000000       0.24972588       0.32727947 </v>
    <v>       0.50000000       0.75010678       0.32731716 </v>
    <v>       0.24994923       0.00007625       0.32731965 </v>
    <v>       0.24980579       0.50002311       0.32731066 </v>
    <v>       0.75005077       0.00007625       0.32731965 </v>
    <v>       0.75019421       0.50002311       0.32731066 </v>
    <v>       0.00000000       0.00002004       0.39176434 </v>
    <v>       0.00000000       0.50010464       0.39188997 </v>
    <v>       0.50000000      -0.00032836       0.39184798 </v>
    <v>       0.50000000       0.49953195       0.39125670 </v>
    <v>       0.25015507       0.25020730       0.39189062 </v>
    <v>       0.25006803       0.75001808       0.39183502 </v>
    <v>       0.74984493       0.25020730       0.39189062 </v>
    <v>       0.74993197       0.75001808       0.39183502 </v>
    <v>       0.00000000       0.25005738       0.45475230 </v>
    <v>       0.00000000       0.74993764       0.45471519 </v>
    <v>       0.50000000       0.24835807       0.45465588 </v>
    <v>       0.50000000       0.75373714       0.45411563 </v>
    <v>       0.25007964       0.00000068       0.45475848 </v>
    <v>       0.24811000       0.49948570       0.45460020 </v>
    <v>       0.74992036       0.00000068       0.45475848 </v>
    <v>       0.75189000       0.49948570       0.45460020 </v>
    <v>       0.50000000       0.48788905       0.50159424 </v>
    <v>       0.50000000       0.61404989       0.50268688 </v>
   </varray>
  </structure>
  <varray name="forces" >
   <v>       0.00000000      -0.00318943       0.26132607 </v>
   <v>       0.00000000       0.00502892       0.26019813 </v>
   <v>       0.00000000       0.00247286       0.25307091 </v>
   <v>       0.00000000      -0.00380127       0.24450947 </v>
   <v>       0.01712847       0.00900125       0.26581612 </v>
   <v>       0.01025117      -0.00892313       0.26660898 </v>
   <v>      -0.01712847       0.00900125       0.26581612 </v>
   <v>      -0.01025117      -0.00892313       0.26660898 </v>
   <v>       0.00000000       0.00179250      -0.01279438 </v>
   <v>       0.00000000      -0.00231921      -0.01640238 </v>
   <v>       0.00000000      -0.00199543      -0.01853918 </v>
   <v>       0.00000000       0.01945132      -0.01188179 </v>
   <v>       0.00240689      -0.00541110      -0.01149987 </v>
   <v>      -0.00966280      -0.00291277      -0.01468318 </v>
   <v>      -0.00240689      -0.00541110      -0.01149987 </v>
   <v>       0.00966280      -0.00291277      -0.01468318 </v>
   <v>       0.00000000      -0.00690491      -0.03729077 </v>
   <v>       0.00000000       0.00381898      -0.04235463 </v>
   <v>       0.00000000      -0.00249170      -0.04284301 </v>
   <v>       0.00000000      -0.00594279      -0.06084574 </v>
   <v>       0.01538606       0.00870571      -0.03301022 </v>
   <v>       0.00786861      -0.00293565      -0.03538558 </v>
   <v>      -0.01538606       0.00870571      -0.03301022 </v>
   <v>      -0.00786861      -0.00293565      -0.03538558 </v>
   <v>       0.00000000       0.00933346       0.01995144 </v>
   <v>       0.00000000      -0.00847269       0.03812379 </v>
   <v>       0.00000000       0.01483312       0.02372918 </v>
   <v>       0.00000000      -0.00921896       0.00723014 </v>
   <v>       0.00935095      -0.00589994       0.03534976 </v>
   <v>       0.00996968       0.00322135       0.02750938 </v>
   <v>      -0.00935095      -0.00589994       0.03534976 </v>
   <v>      -0.00996968       0.00322135       0.02750938 </v>
   <v>       0.00000000       0.00359692      -0.00408532 </v>
   <v>       0.00000000      -0.00568842      -0.03819380 </v>
   <v>       0.00000000      -0.00817974      -0.04591321 </v>
   <v>       0.00000000      -0.00302930       0.01430982 </v>
   <v>       0.00744166       0.00714040      -0.00213694 </v>
   <v>       0.01409841      -0.00046838       0.01217686 </v>
   <v>      -0.00744166       0.00714040      -0.00213694 </v>
   <v>      -0.01409841      -0.00046838       0.01217686 </v>
   <v>       0.00000000      -0.00320378      -0.15631903 </v>
   <v>       0.00000000      -0.00069940      -0.17689837 </v>
   <v>       0.00000000      -0.05686336      -0.18113881 </v>
   <v>       0.00000000       0.03122714      -0.15578714 </v>
   <v>      -0.00832567       0.01272788      -0.14063169 </v>
   <v>      -0.04643628      -0.00054193      -0.15216785 </v>
   <v>       0.00832567       0.01272788      -0.14063169 </v>
   <v>       0.04643628      -0.00054193      -0.15216785 </v>
   <v>       0.00000000       0.00681282      -0.07546804 </v>
   <v>       0.00000000       0.01850794      -0.02939861 </v>
   <v>       0.00000000       0.00140930      -0.10306624 </v>
   <v>       0.00000000      -0.05743513      -0.33810350 </v>
   <v>       0.02152657       0.01343480      -0.02378090 </v>
   <v>      -0.00660663      -0.00105166      -0.06953757 </v>
   <v>      -0.02152657       0.01343480      -0.02378090 </v>
   <v>       0.00660663      -0.00105166      -0.06953757 </v>
   <v>       0.00000000      -0.02265342      -0.01195781 </v>
   <v>       0.00000000       0.01075016      -0.04179901 </v>
   <v>       0.00000000      -0.08374402       0.05829086 </v>
   <v>       0.00000000       0.32086083      -0.13655590 </v>
   <v>      -0.02213013       0.01070031      -0.00279888 </v>
   <v>      -0.10039030      -0.04621446       0.01469461 </v>
   <v>       0.02213013       0.01070031      -0.00279888 </v>
   <v>       0.10039030      -0.04621446       0.01469461 </v>
   <v>       0.00000000       0.38210530      -0.18300485 </v>
   <v>       0.00000000      -0.52731399       0.46685563 </v>
  </varray>
  <varray name="stress" >
   <v>     -46.26915992       0.00000000       0.00000000 </v>
   <v>       0.00000000     -45.64951396      -0.18362653 </v>
   <v>       0.00000000      -0.18362633     -25.20231127 </v>
  </varray>
  <energy>
   <i name="e_fr_energy">   -261.39987556 </i>
   <i name="e_wo_entrp">   -261.24742372 </i>
   <i name="e_0_energy">   -261.34905828 </i>
  </energy>
  <time name="totalsc">  337.79  340.82</time>
 </calculation>
 <calculation>
  <scstep>
   <time name="dav">   44.84   45.15</time>
   <time name="total">   45.76   46.08</time>
   <energy>
    <i name="alphaZ">   2059.53800561 </i>
    <i name="ewald"> 389510.72361931 </i>
    <i name="hartreedc">-476037.95280004 </i>
    <i name="XCdc">   2858.98615379 </i>
    <i name="pawpsdc">  83719.59174369 </i>
    <i name="pawaedc"> -90612.60508871 </i>
    <i name="eentropy">     -0.15501604 </i>
    <i name="bandstr">   -779.27006441 </i>
    <i name="atom">  89046.24623812 </i>
    <i name="e_fr_energy">   -234.89720869 </i>
    <i name="e_wo_entrp">   -234.74219264 </i>
    <i name="e_0_energy">   -234.84553667 </i>
   </energy>
  </scstep>
  <scstep>
   <time name="dav">   59.65   60.11</time>
   <time name="total">   60.58   61.05</time>
   <energy>
    <i name="e_fr_energy">   -234.93359951 </i>
    <i name="e_wo_entrp">   -234.77946702 </i>
    <i name="e_0_energy">   -234.88222201 </i>
   </energy>
  </scstep>
  <scstep>
   <time name="dav">   43.71   44.00</time>
   <time name="total">   44.66   44.95</time>
   <energy>
    <i name="e_fr_energy">   -234.93249963 </i>
    <i name="e_wo_entrp">   -234.77868691 </i>
    <i name="e_0_energy">   -234.88122872 </i>
   </energy>
  </scstep>
  <scstep>
   <time name="dav">   47.63   48.12</time>
   <time name="total">   48.57   49.06</time>
   <energy>
    <i name="e_fr_energy">   -234.93233117 </i>
    <i name="e_wo_entrp">   -234.77724636 </i>
    <i name="e_0_energy">   -234.88063623 </i>
   </energy>
  </scstep>
  <scstep>
   <time name="dav">   49.30   49.63</time>
   <time name="total">   50.23   50.57</time>
   <energy>
    <i name="e_fr_energy">   -234.93222948 </i>
    <i name="e_wo_entrp">   -234.77825188 </i>
    <i name="e_0_energy">   -234.88090362 </i>
   </energy>
  </scstep>
  <scstep>
   <time name="dav">   46.89   47.28</time>
   <time name="total">   47.83   48.23</time>
   <energy>
    <i name="e_fr_energy">   -234.93171074 </i>
    <i name="e_wo_entrp">   -234.77686374 </i>
    <i name="e_0_energy">   -234.88009508 </i>
   </energy>
  </scstep>
  <scstep>
   <time name="dav">   53.45   53.86</time>
   <time name="total">   54.37   54.80</time>
   <energy>
    <i name="e_fr_energy">   -234.93122694 </i>
    <i name="e_wo_entrp">   -234.77688866 </i>
    <i name="e_0_energy">   -234.87978085 </i>
   </energy>
  </scstep>
  <scstep>
   <time name="dav">   44.32   44.68</time>
   <time name="total">   44.45   44.81</time>
   <energy>
    <i name="alphaZ">   2059.53800561 </i>
    <i name="ewald"> 389510.72361931 </i>
    <i name="hartreedc">-476039.45988884 </i>
    <i name="XCdc">   2858.94527368 </i>
    <i name="pawpsdc">  83740.07882344 </i>
    <i name="pawaedc"> -90633.62259079 </i>
    <i name="eentropy">     -0.15458212 </i>
    <i name="bandstr">   -777.22614939 </i>
[...]
       <r>    12.8955     0.0000   456.0000 </r>
       <r>    12.9718     0.0000   456.0000 </r>
       <r>    13.0480     0.0000   456.0000 </r>
       <r>    13.1243     0.0000   456.0000 </r>
       <r>    13.2006     0.0000   456.0000 </r>
       <r>    13.2769     0.0000   456.0000 </r>
       <r>    13.3532     0.0000   456.0000 </r>
      </set>
      <set comment="spin 2">
       <r>    -9.5312     0.0000     0.0000 </r>
       <r>    -9.4550     0.0000     0.0000 </r>
       <r>    -9.3787     0.0000     0.0000 </r>
       <r>    -9.3024     0.0000     0.0000 </r>
       <r>    -9.2261     0.0000     0.0000 </r>
       <r>    -9.1498    -0.0000    -0.0000 </r>
       <r>    -9.0735    -0.0000    -0.0000 </r>
       <r>    -8.9973    -0.0000    -0.0000 </r>
       <r>    -8.9210    -0.0000    -0.0000 </r>
       <r>    -8.8447    -0.0000    -0.0000 </r>
       <r>    -8.7684    -0.0000    -0.0000 </r>
       <r>    -8.6921    -0.0000    -0.0000 </r>
       <r>    -8.6159    -0.0000    -0.0000 </r>
       <r>    -8.5396    -0.0000    -0.0000 </r>
       <r>    -8.4633    -0.0000    -0.0000 </r>
       <r>    -8.3870    -0.0000    -0.0000 </r>
       <r>    -8.3107    -0.0000    -0.0000 </r>
       <r>    -8.2345    -0.0000    -0.0000 </r>
       <r>    -8.1582    -0.0001    -0.0000 </r>
       <r>    -8.0819    -0.0004    -0.0000 </r>
       <r>    -8.0056    -0.0024    -0.0002 </r>
       <r>    -7.9293    -0.0091    -0.0009 </r>
       <r>    -7.8530    -0.0211    -0.0025 </r>
       <r>    -7.7768    -0.0196    -0.0040 </r>
       <r>    -7.7005     0.0446    -0.0006 </r>
       <r>    -7.6242     0.1954     0.0143 </r>
       <r>    -7.5479     0.3400     0.0402 </r>
       <r>    -7.4716     0.3554     0.0673 </r>
       <r>    -7.3954     0.3621     0.0950 </r>
       <r>    -7.3191     0.6900     0.1476 </r>
       <r>    -7.2428     1.3273     0.2488 </r>
       <r>    -7.1665     1.7272     0.3806 </r>
       <r>    -7.0902     1.5910     0.5020 </r>
       <r>    -7.0140     1.4128     0.6097 </r>
       <r>    -6.9377     1.6754     0.7375 </r>
       <r>    -6.8614     2.0703     0.8955 </r>
       <r>    -6.7851     2.1462     1.0592 </r>
       <r>    -6.7088     2.0196     1.2132 </r>
       <r>    -6.6325     1.8402     1.3536 </r>
       <r>    -6.5563     1.4504     1.4642 </r>
       <r>    -6.4800     1.0992     1.5481 </r>
       <r>    -6.4037     1.4735     1.6605 </r>
       <r>    -6.3274     2.5446     1.8546 </r>
       <r>    -6.2511     3.2687     2.1039 </r>
       <r>    -6.1749     2.9463     2.3287 </r>
       <r>    -6.0986     2.3106     2.5049 </r>
       <r>    -6.0223     2.6309     2.7056 </r>
       <r>    -5.9460     3.9518     3.0071 </r>
       <r>    -5.8697     4.9938     3.3880 </r>
       <r>    -5.7934     4.8269     3.7562 </r>
       <r>    -5.7172     3.8523     4.0501 </r>
       <r>    -5.6409     3.1636     4.2914 </r>
       <r>    -5.5646     3.5010     4.5585 </r>
       <r>    -5.4883     4.4843     4.9005 </r>
       <r>    -5.4120     4.7474     5.2627 </r>
       <r>    -5.3358     3.5030     5.5299 </r>
       <r>    -5.2595     1.7292     5.6618 </r>
       <r>    -5.1832     1.0332     5.7406 </r>
       <r>    -5.1069     1.7549     5.8745 </r>
       <r>    -5.0306     2.9768     6.1015 </r>
       <r>    -4.9544     4.1049     6.4147 </r>
       <r>    -4.8781     5.4896     6.8334 </r>
       <r>    -4.8018     7.4061     7.3984 </r>
       <r>    -4.7255     9.4386     8.1184 </r>
       <r>    -4.6492    10.9346     8.9525 </r>
       <r>    -4.5729    11.1586     9.8037 </r>
       <r>    -4.4967     9.5869    10.5350 </r>
       <r>    -4.4204     6.8105    11.0545 </r>
       <r>    -4.3441     4.3348    11.3851 </r>
       <r>    -4.2678     3.3453    11.6403 </r>
       <r>    -4.1915     3.9746    11.9435 </r>
       <r>    -4.1153     5.2758    12.3460 </r>
       <r>    -4.0390     6.2631    12.8237 </r>
       <r>    -3.9627     7.1070    13.3658 </r>
       <r>    -3.8864     8.3102    13.9998 </r>
       <r>    -3.8101     9.6394    14.7351 </r>
       <r>    -3.7339    10.9920    15.5735 </r>
       <r>    -3.6576    12.5640    16.5319 </r>
       <r>    -3.5813    13.7548    17.5812 </r>
       <r>    -3.5050    13.7378    18.6291 </r>
       <r>    -3.4287    12.6405    19.5933 </r>
       <r>    -3.3524    11.3210    20.4569 </r>
       <r>    -3.2762    11.3272    21.3210 </r>
       <r>    -3.1999    15.0107    22.4660 </r>
       <r>    -3.1236    23.4177    24.2523 </r>
       <r>    -3.0473    33.2512    26.7888 </r>
       <r>    -2.9710    38.2427    29.7060 </r>
       <r>    -2.8948    36.0356    32.4548 </r>
       <r>    -2.8185    31.9573    34.8926 </r>
       <r>    -2.7422    32.7626    37.3918 </r>
       <r>    -2.6659    38.5895    40.3354 </r>
       <r>    -2.5896    45.0313    43.7705 </r>
       <r>    -2.5134    51.4302    47.6936 </r>
       <r>    -2.4371    61.5128    52.3859 </r>
       <r>    -2.3608    74.5382    58.0718 </r>
       <r>    -2.2845    81.4907    64.2880 </r>
       <r>    -2.2082    75.2151    70.0255 </r>
       <r>    -2.1319    61.0637    74.6836 </r>
       <r>    -2.0557    51.6136    78.6207 </r>
       <r>    -1.9794    53.0630    82.6684 </r>
       <r>    -1.9031    61.5575    87.3641 </r>
       <r>    -1.8268    69.9656    92.7012 </r>
       <r>    -1.7505    73.9522    98.3424 </r>
       <r>    -1.6743    73.8956   103.9792 </r>
       <r>    -1.5980    74.1983   109.6392 </r>
       <r>    -1.5217    79.3867   115.6949 </r>
       <r>    -1.4454    89.4792   122.5205 </r>
       <r>    -1.3691    99.8367   130.1361 </r>
       <r>    -1.2928   105.9839   138.2207 </r>
       <r>    -1.2166   108.2260   146.4764 </r>
       <r>    -1.1403   109.4903   154.8284 </r>
       <r>    -1.0640   109.2536   163.1625 </r>
       <r>    -0.9877   105.1214   171.1813 </r>
       <r>    -0.9114    98.8716   178.7233 </r>
       <r>    -0.8352    94.1683   185.9066 </r>
       <r>    -0.7589    92.5523   192.9666 </r>
       <r>    -0.6826    95.9499   200.2858 </r>
       <r>    -0.6063   105.2208   208.3122 </r>
       <r>    -0.5300   115.0442   217.0879 </r>
       <r>    -0.4538   118.5902   226.1341 </r>
       <r>    -0.3775   116.3787   235.0117 </r>
       <r>    -0.3012   114.1377   243.7182 </r>
       <r>    -0.2249   114.2302   252.4319 </r>
       <r>    -0.1486   115.4161   261.2360 </r>
       <r>    -0.0723   119.5726   270.3571 </r>
       <r>     0.0039   131.6317   280.3982 </r>
       <r>     0.0802   150.0708   291.8458 </r>
       <r>     0.1565   162.4618   304.2386 </r>
       <r>     0.2328   155.2245   316.0793 </r>
       <r>     0.3091   125.8402   325.6786 </r>
       <r>     0.3853    84.7799   332.1457 </r>
       <r>     0.4616    47.8873   335.7986 </r>
       <r>     0.5379    25.2172   337.7222 </r>
       <r>     0.6142    15.8359   338.9302 </r>
       <r>     0.6905    13.5535   339.9641 </r>
       <r>     0.7667    13.8271   341.0188 </r>
       <r>     0.8430    14.4768   342.1231 </r>
       <r>     0.9193    14.9625   343.2645 </r>
       <r>     0.9956    15.7135   344.4631 </r>
       <r>     1.0719    15.9296   345.6783 </r>
       <r>     1.1482    13.8783   346.7369 </r>
       <r>     1.2244     9.8912   347.4914 </r>
       <r>     1.3007     6.1703   347.9621 </r>
       <r>     1.3770     3.9278   348.2617 </r>
       <r>     1.4533     2.8255   348.4773 </r>
       <r>     1.5296     2.5228   348.6697 </r>
       <r>     1.6058     3.5419   348.9399 </r>
       <r>     1.6821     6.7788   349.4570 </r>
       <r>     1.7584    12.4547   350.4070 </r>
       <r>     1.8347    19.1731   351.8696 </r>
       <r>     1.9110    23.5501   353.6660 </r>
       <r>     1.9872    21.9867   355.3432 </r>
       <r>     2.0635    14.5496   356.4531 </r>
       <r>     2.1398     6.0544   356.9149 </r>
       <r>     2.2161     1.7391   357.0476 </r>
       <r>     2.2924     2.6482   357.2496 </r>
       <r>     2.3687     5.6953   357.6840 </r>
       <r>     2.4449     7.5272   358.2582 </r>
       <r>     2.5212     7.7769   358.8514 </r>
       <r>     2.5975     8.1585   359.4738 </r>
       <r>     2.6738     9.5492   360.2022 </r>
       <r>     2.7501    11.1434   361.0522 </r>
       <r>     2.8263    11.3386   361.9172 </r>
       <r>     2.9026     9.3204   362.6281 </r>
       <r>     2.9789     6.8197   363.1483 </r>
       <r>     3.0552     7.0690   363.6876 </r>
       <r>     3.1315    10.9486   364.5228 </r>
       <r>     3.2078    15.5498   365.7089 </r>
       <r>     3.2840    17.1375   367.0162 </r>
       <r>     3.3603    14.4781   368.1206 </r>
       <r>     3.4366     9.2230   368.8241 </r>
       <r>     3.5129     4.2143   369.1456 </r>
       <r>     3.5892     1.9262   369.2925 </r>
       <r>     3.6654     3.4820   369.5582 </r>
       <r>     3.7417     7.7108   370.1463 </r>
       <r>     3.8180    11.3341   371.0109 </r>
       <r>     3.8943    11.4619   371.8853 </r>
       <r>     3.9706     8.3167   372.5197 </r>
       <r>     4.0468     5.0435   372.9044 </r>
       <r>     4.1231     4.4528   373.2441 </r>
       <r>     4.1994     6.0303   373.7041 </r>
       <r>     4.2757     7.1256   374.2476 </r>
       <r>     4.3520     6.6792   374.7571 </r>
       <r>     4.4283     5.7345   375.1945 </r>
       <r>     4.5045     5.2947   375.5984 </r>
       <r>     4.5808     6.1327   376.0662 </r>
       <r>     4.6571     8.8994   376.7451 </r>
       <r>     4.7334    12.2507   377.6796 </r>
       <r>     4.8097    13.1956   378.6862 </r>
       <r>     4.8859    10.9674   379.5228 </r>
       <r>     4.9622     8.1847   380.1471 </r>
       <r>     5.0385     7.2337   380.6989 </r>
       <r>     5.1148     7.8163   381.2952 </r>
       <r>     5.1911     8.4605   381.9405 </r>
       <r>     5.2673     8.5499   382.5927 </r>
       <r>     5.3436     8.7242   383.2582 </r>
       <r>     5.4199     9.9253   384.0153 </r>
       <r>     5.4962    11.5627   384.8974 </r>
       <r>     5.5725    11.4353   385.7697 </r>
       <r>     5.6488     8.7834   386.4397 </r>
       <r>     5.7250     5.7839   386.8809 </r>
       <r>     5.8013     4.7866   387.2460 </r>
       <r>     5.8776     5.8456   387.6919 </r>
       <r>     5.9539     7.6094   388.2724 </r>
       <r>     6.0302     9.1347   388.9692 </r>
       <r>     6.1064    10.0507   389.7359 </r>
       <r>     6.1827    10.0375   390.5015 </r>
       <r>     6.2590     9.4575   391.2230 </r>
       <r>     6.3353     9.8057   391.9709 </r>
       <r>     6.4116    12.1634   392.8988 </r>
       <r>     6.4878    15.3757   394.0717 </r>
       <r>     6.5641    16.7523   395.3496 </r>
       <r>     6.6404    15.1707   396.5068 </r>
       <r>     6.7167    12.8966   397.4906 </r>
       <r>     6.7930    12.7814   398.4655 </r>
       <r>     6.8693    14.0270   399.5355 </r>
       <r>     6.9455    13.1995   400.5424 </r>
       <r>     7.0218     9.4006   401.2595 </r>
       <r>     7.0981     5.6737   401.6923 </r>
       <r>     7.1744     4.9629   402.0709 </r>
       <r>     7.2507     7.0122   402.6058 </r>
       <r>     7.3269     9.5547   403.3346 </r>
       <r>     7.4032    10.8625   404.1632 </r>
       <r>     7.4795    10.9475   404.9983 </r>
       <r>     7.5558    10.9985   405.8373 </r>
       <r>     7.6321    11.8113   406.7383 </r>
       <r>     7.7084    13.3359   407.7556 </r>
       <r>     7.7846    15.6334   408.9481 </r>
       <r>     7.8609    18.3956   410.3514 </r>
       <r>     7.9372    19.4416   411.8344 </r>
       <r>     8.0135    16.4107   413.0862 </r>
       <r>     8.0898    10.4525   413.8835 </r>
       <r>     8.1660     6.2683   414.3617 </r>
       <r>     8.2423     7.7863   414.9557 </r>
       <r>     8.3186    13.8511   416.0122 </r>
       <r>     8.3949    18.6310   417.4334 </r>
       <r>     8.4712    17.5132   418.7694 </r>
       <r>     8.5474    12.0787   419.6907 </r>
       <r>     8.6237     7.5296   420.2651 </r>
       <r>     8.7000     6.6804   420.7747 </r>
       <r>     8.7763     8.8074   421.4465 </r>
       <r>     8.8526    12.2456   422.3807 </r>
       <r>     8.9289    15.3947   423.5550 </r>
       <r>     9.0051    16.8107   424.8373 </r>
       <r>     9.0814    16.3759   426.0865 </r>
       <r>     9.1577    15.4939   427.2684 </r>
       <r>     9.2340    15.2977   428.4353 </r>
       <r>     9.3103    15.5605   429.6223 </r>
       <r>     9.3865    15.6017   430.8124 </r>
       <r>     9.4628    15.3287   431.9817 </r>
       <r>     9.5391    15.0951   433.1332 </r>
       <r>     9.6154    14.7767   434.2604 </r>
       <r>     9.6917    13.7248   435.3073 </r>
       <r>     9.7679    12.2606   436.2426 </r>
       <r>     9.8442    11.7924   437.1421 </r>
       <r>     9.9205    12.5765   438.1015 </r>
       <r>     9.9968    13.1074   439.1013 </r>
       <r>    10.0731    12.3994   440.0472 </r>
       <r>    10.1494    11.5982   440.9319 </r>
       <r>    10.2256    12.8151   441.9094 </r>
       <r>    10.3019    16.6128   443.1767 </r>
       <r>    10.3782    20.8188   444.7648 </r>
       <r>    10.4545    22.2311   446.4606 </r>
       <r>    10.5308    19.7310   447.9657 </r>
       <r>    10.6070    15.2843   449.1316 </r>
       <r>    10.6833    11.5867   450.0155 </r>
       <r>    10.7596     9.5645   450.7451 </r>
       <r>    10.8359     8.8483   451.4200 </r>
       <r>    10.9122     9.2522   452.1258 </r>
       <r>    10.9884    10.3197   452.9130 </r>
       <r>    11.0647    10.6298   453.7238 </r>
       <r>    11.1410     9.2174   454.4270 </r>
       <r>    11.2173     6.9703   454.9587 </r>
       <r>    11.2936     5.3311   455.3653 </r>
       <r>    11.3699     4.3007   455.6934 </r>
       <r>    11.4461     2.9790   455.9206 </r>
       <r>    11.5224     1.3438   456.0231 </r>
       <r>    11.5987     0.1737   456.0364 </r>
       <r>    11.6750    -0.2157   456.0199 </r>
       <r>    11.7513    -0.1723   456.0068 </r>
       <r>    11.8275    -0.0682   456.0016 </r>
       <r>    11.9038    -0.0174   456.0003 </r>
       <r>    11.9801    -0.0031   456.0000 </r>
       <r>    12.0564    -0.0004   456.0000 </r>
       <r>    12.1327    -0.0000   456.0000 </r>
       <r>    12.2090    -0.0000   456.0000 </r>
       <r>    12.2852    -0.0000   456.0000 </r>
       <r>    12.3615    -0.0000   456.0000 </r>
       <r>    12.4378    -0.0000   456.0000 </r>
       <r>    12.5141    -0.0000   456.0000 </r>
       <r>    12.5904    -0.0000   456.0000 </r>
       <r>    12.6666     0.0000   456.0000 </r>
       <r>    12.7429     0.0000   456.0000 </r>
       <r>    12.8192     0.0000   456.0000 </r>
       <r>    12.8955     0.0000   456.0000 </r>
       <r>    12.9718     0.0000   456.0000 </r>
       <r>    13.0480     0.0000   456.0000 </r>
       <r>    13.1243     0.0000   456.0000 </r>
       <r>    13.2006     0.0000   456.0000 </r>
       <r>    13.2769     0.0000   456.0000 </r>
       <r>    13.3532     0.0000   456.0000 </r>
      </set>
     </set>
    </array>
   </total>
  </dos>
 </calculation>
 <structure name="finalpos" >
  <crystal>
   <varray name="basis" >
    <v>       7.26000023       0.00000000       0.00000000 </v>
    <v>       0.00000000       7.26000023       0.00000000 </v>
    <v>       0.00000000       0.00000000      27.70499992 </v>
   </varray>
   <i name="volume">   1460.26414606 </i>
   <varray name="rec_basis" >
    <v>       0.13774104       0.00000000       0.00000000 </v>
    <v>       0.00000000       0.13774104       0.00000000 </v>
    <v>       0.00000000       0.00000000       0.03609457 </v>
   </varray>
  </crystal>
  <varray name="positions" >
   <v>       0.00000000      -0.00250949       0.00762316 </v>
   <v>       0.00000000       0.49759526       0.00759873 </v>
   <v>       0.50000000      -0.00261041       0.00763357 </v>
   <v>       0.50000000       0.49734992       0.00770192 </v>
   <v>       0.24999671       0.24750597       0.00762651 </v>
   <v>       0.24992734       0.74763218       0.00764283 </v>
   <v>       0.75000329       0.24750597       0.00762651 </v>
   <v>       0.75007266       0.74763218       0.00764283 </v>
   <v>       0.00000000       0.24745783       0.06988895 </v>
   <v>       0.00000000       0.74760343       0.06984297 </v>
   <v>       0.50000000       0.24765491       0.06980470 </v>
   <v>       0.50000000       0.74759949       0.06990045 </v>
   <v>       0.24991545      -0.00265010       0.06987189 </v>
   <v>       0.25002989       0.49744278       0.06983110 </v>
   <v>       0.75008455      -0.00265010       0.06987189 </v>
   <v>       0.74997011       0.49744278       0.06983110 </v>
   <v>       0.00000000      -0.00251919       0.13346678 </v>
   <v>       0.00000000       0.49772648       0.13351936 </v>
   <v>       0.50000000      -0.00225964       0.13350916 </v>
   <v>       0.50000000       0.49756207       0.13342830 </v>
   <v>       0.25022023       0.24775089       0.13349572 </v>
   <v>       0.25001834       0.74764352       0.13348280 </v>
   <v>       0.74977977       0.24775089       0.13349572 </v>
   <v>       0.74998166       0.74764352       0.13348280 </v>
   <v>       0.00000000       0.24774794       0.19631286 </v>
   <v>       0.00000000       0.74789852       0.19645095 </v>
   <v>       0.50000000       0.24820609       0.19647729 </v>
   <v>       0.50000000       0.74783265       0.19636703 </v>
   <v>       0.24993652      -0.00212756       0.19637949 </v>
   <v>       0.25023255       0.49809338       0.19638632 </v>
   <v>       0.75006348      -0.00212756       0.19637949 </v>
   <v>       0.74976745       0.49809338       0.19638632 </v>
   <v>       0.00000000      -0.00208387       0.25884658 </v>
   <v>       0.00000000       0.49765521       0.25886909 </v>
   <v>       0.50000000      -0.00214974       0.25879945 </v>
   <v>       0.50000000       0.49812059       0.25902030 </v>
   <v>       0.24975219       0.24786882       0.25885637 </v>
   <v>       0.25001745       0.74783716       0.25893079 </v>
   <v>       0.75024781       0.24786882       0.25885637 </v>
   <v>       0.74998255       0.74783716       0.25893079 </v>
   <v>       0.00000000       0.24785550       0.32179431 </v>
   <v>       0.00000000       0.74783230       0.32181464 </v>
   <v>       0.50000000       0.24800787       0.32167601 </v>
   <v>       0.50000000       0.74815309       0.32182501 </v>
   <v>       0.24994936      -0.00194817       0.32170315 </v>
   <v>       0.24983221       0.49797471       0.32178746 </v>
   <v>       0.75005064      -0.00194817       0.32170315 </v>
   <v>       0.75016779       0.49797471       0.32178746 </v>
   <v>       0.00000000      -0.00226025       0.38547703 </v>
   <v>       0.00000000       0.49789572       0.38541616 </v>
   <v>       0.50000000      -0.00209655       0.38551746 </v>
   <v>       0.50000000       0.49779417       0.38543632 </v>
   <v>       0.25018643       0.24803725       0.38541288 </v>
   <v>       0.25022300       0.74815623       0.38553892 </v>
   <v>       0.74981357       0.24803725       0.38541288 </v>
   <v>       0.74977700       0.74815623       0.38553892 </v>
   <v>       0.00000000       0.24783760       0.44767800 </v>
   <v>       0.00000000       0.74743666       0.44768642 </v>
   <v>       0.50000000       0.24755415       0.44774641 </v>
   <v>       0.50000000       0.74868805       0.44770669 </v>
   <v>       0.24984634      -0.00189011       0.44768571 </v>
   <v>       0.24961264       0.49715639       0.44746023 </v>
   <v>       0.75015366      -0.00189011       0.44768571 </v>
   <v>       0.75038736       0.49715639       0.44746023 </v>
   <v>       0.50000000       0.59129681       0.52588083 </v>
   <v>       0.50000000       0.65391496       0.54795075 </v>
  </varray>
 </structure>
</modeling>
