unknown system                          
           1
     7.260000    0.000000    0.000000
     0.000000    7.260000    0.000000
     0.000000    0.000000   27.705000
   Cu   H 
    64     2
Direct configuration=     1
   0.00000000  0.00000000  0.00000000
   0.00000000  0.50000000  0.00000000
   0.50000000  0.00000000  0.00000000
   0.50000000  0.50000000  0.00000000
   0.25000000  0.25000000  0.00000000
   0.25000000  0.75000000  0.00000000
   0.75000000  0.25000000  0.00000000
   0.75000000  0.75000000  0.00000000
   0.00000000  0.25000000  0.06551164
   0.00000000  0.75000000  0.06551164
   0.50000000  0.25000000  0.06551164
   0.50000000  0.75000000  0.06551164
   0.25000000  0.00000000  0.06551164
   0.25000000  0.50000000  0.06551164
   0.75000000  0.00000000  0.06551164
   0.75000000  0.50000000  0.06551164
   0.00000000  0.00000000  0.13164128
   0.00000000  0.50000000  0.13164128
   0.50000000  0.00000000  0.13164128
   0.50000000  0.50000000  0.13164128
   0.25000000  0.25000000  0.13164128
   0.25000000  0.75000000  0.13164128
   0.75000000  0.25000000  0.13164128
   0.75000000  0.75000000  0.13164128
   0.00000000  0.25000000  0.19677891
   0.00000000  0.75000000  0.19677891
   0.50000000  0.25000000  0.19677891
   0.50000000  0.75000000  0.19677891
   0.25000000  0.00000000  0.19677891
   0.25000000  0.50000000  0.19677891
   0.75000000  0.00000000  0.19677891
   0.75000000  0.50000000  0.19677891
   0.00000000  0.00000000  0.26184662
   0.00000000  0.50000000  0.26184662
   0.50000000  0.00000000  0.26184662
   0.50000000  0.50000000  0.26184662
   0.25000000  0.25000000  0.26184662
   0.25000000  0.75000000  0.26184662
   0.75000000  0.25000000  0.26184662
   0.75000000  0.75000000  0.26184662
   0.00000000  0.25000000  0.32758887
   0.00000000  0.75000000  0.32758887
   0.50000000  0.25000000  0.32758887
   0.50000000  0.75000000  0.32758887
   0.25000000  0.00000000  0.32758887
   0.25000000  0.50000000  0.32758887
   0.75000000  0.00000000  0.32758887
   0.75000000  0.50000000  0.32758887
   0.00000000  0.00000000  0.39185763
   0.00000000  0.50000000  0.39185763
   0.50000000  0.00000000  0.39185763
   0.50000000  0.50000000  0.39185763
   0.25000000  0.25000000  0.39185763
   0.25000000  0.75000000  0.39185763
   0.75000000  0.25000000  0.39185763
   0.75000000  0.75000000  0.39185763
   0.00000000  0.25000000  0.45475490
   0.00000000  0.75000000  0.45475490
   0.50000000  0.25000000  0.45475490
   0.50000000  0.75000000  0.45475490
   0.25000000  0.00000000  0.45475490
   0.25000000  0.50000000  0.45475490
   0.75000000  0.00000000  0.45475490
   0.75000000  0.50000000  0.45475490
   0.50000000  0.50000000  0.50150658
   0.50000000  0.60275482  0.50150658
Direct configuration=     2
   0.00000000 -0.00003413  0.00053430
   0.00000000  0.50005234  0.00054431
   0.50000000  0.00002160  0.00053659
   0.50000000  0.49994449  0.00052031
   0.25013296  0.25007375  0.00055625
   0.25005395  0.74993396  0.00055929
   0.74986704  0.25007375  0.00055625
   0.74994605  0.74993396  0.00055929
   0.00000000  0.25002793  0.06540669
   0.00000000  0.74997250  0.06540003
   0.50000000  0.24999272  0.06539409
   0.50000000  0.75017113  0.06541110
   0.25003202 -0.00005587  0.06540725
   0.24991877  0.49997362  0.06540135
   0.74996798 -0.00005587  0.06540725
   0.75008123  0.49997362  0.06540135
   0.00000000 -0.00007504  0.13153601
   0.00000000  0.50001842  0.13152457
   0.50000000 -0.00004552  0.13152315
   0.50000000  0.49993129  0.13148770
   0.25013025  0.25010841  0.13155113
   0.25007037  0.74997493  0.13154627
   0.74986975  0.25010841  0.13155113
   0.74992963  0.74997493  0.13154627
   0.00000000  0.25007526  0.19684099
   0.00000000  0.74993396  0.19687676
   0.50000000  0.25010453  0.19684673
   0.50000000  0.74993520  0.19681057
   0.25007800 -0.00004791  0.19686670
   0.25008068  0.50002556  0.19684021
   0.74992200 -0.00004791  0.19686670
   0.74991932  0.50002556  0.19684021
   0.00000000  0.00002244  0.26187240
   0.00000000  0.49994454  0.26179339
   0.50000000 -0.00008073  0.26178482
   0.50000000  0.49994748  0.26191957
   0.25003864  0.25007044  0.26188438
   0.25008560  0.75001283  0.26191499
   0.74996136  0.25007044  0.26188438
   0.74991440  0.75001283  0.26191499
   0.00000000  0.24992714  0.32723712
   0.00000000  0.75000157  0.32720742
   0.50000000  0.24965966  0.32720473
   0.50000000  0.75013258  0.32725152
   0.24993697  0.00009467  0.32725462
   0.24975887  0.50002870  0.32724346
   0.75006303  0.00009467  0.32725462
   0.75024113  0.50002870  0.32724346
   0.00000000  0.00002488  0.39174181
   0.00000000  0.50012992  0.39189778
   0.50000000 -0.00040769  0.39184565
   0.50000000  0.49941888  0.39111154
   0.25019253  0.25025738  0.39189859
   0.25008447  0.75002245  0.39182956
   0.74980747  0.25025738  0.39189859
   0.74991553  0.75002245  0.39182956
   0.00000000  0.25007124  0.45475167
   0.00000000  0.74992258  0.45470560
   0.50000000  0.24796142  0.45463196
   0.50000000  0.75463992  0.45396120
   0.25009888  0.00000084  0.45475935
   0.24765343  0.49936146  0.45456283
   0.74990112  0.00000084  0.45475935
   0.75234657  0.49936146  0.45456283
   0.50000000  0.48496341  0.50161542
   0.50000000  0.61677844  0.50297200
Direct configuration=     3
   0.00000000 -0.00002749  0.00043034
   0.00000000  0.50004215  0.00043840
   0.50000000  0.00001740  0.00043219
   0.50000000  0.49995529  0.00041908
   0.25010709  0.25005940  0.00044802
   0.25004346  0.74994681  0.00045047
   0.74989291  0.25005940  0.00044802
   0.74995654  0.74994681  0.00045047
   0.00000000  0.25002249  0.06542711
   0.00000000  0.74997785  0.06542174
   0.50000000  0.24999414  0.06541696
   0.50000000  0.75013784  0.06543066
   0.25002579 -0.00004500  0.06542756
   0.24993457  0.49997875  0.06542281
   0.74997421 -0.00004500  0.06542756
   0.75006543  0.49997875  0.06542281
   0.00000000 -0.00006044  0.13155650
   0.00000000  0.50001483  0.13154728
   0.50000000 -0.00003666  0.13154614
   0.50000000  0.49994466  0.13151758
   0.25010490  0.25008732  0.13156867
   0.25005668  0.74997981  0.13156476
   0.74989510  0.25008732  0.13156867
   0.74994332  0.74997981  0.13156476
   0.00000000  0.25006062  0.19682891
   0.00000000  0.74994681  0.19685773
   0.50000000  0.25008419  0.19683354
   0.50000000  0.74994781  0.19680441
   0.25006283 -0.00003859  0.19684962
   0.25006498  0.50002058  0.19682829
   0.74993717 -0.00003859  0.19684962
   0.74993502  0.50002058  0.19682829
   0.00000000  0.00001807  0.26186739
   0.00000000  0.49995533  0.26180375
   0.50000000 -0.00006502  0.26179685
   0.50000000  0.49995770  0.26190537
   0.25003112  0.25005673  0.26187703
   0.25006894  0.75001033  0.26190169
   0.74996888  0.25005673  0.26187703
   0.74993106  0.75001033  0.26190169
   0.00000000  0.24994131  0.32730556
   0.00000000  0.75000127  0.32728164
   0.50000000  0.24972588  0.32727947
   0.50000000  0.75010678  0.32731716
   0.24994923  0.00007625  0.32731965
   0.24980579  0.50002311  0.32731066
   0.75005077  0.00007625  0.32731965
   0.75019421  0.50002311  0.32731066
   0.00000000  0.00002004  0.39176434
   0.00000000  0.50010464  0.39188997
   0.50000000 -0.00032836  0.39184798
   0.50000000  0.49953195  0.39125670
   0.25015507  0.25020730  0.39189062
   0.25006803  0.75001808  0.39183502
   0.74984493  0.25020730  0.39189062
   0.74993197  0.75001808  0.39183502
   0.00000000  0.25005738  0.45475230
   0.00000000  0.74993764  0.45471519
   0.50000000  0.24835807  0.45465588
   0.50000000  0.75373714  0.45411563
   0.25007964  0.00000068  0.45475848
   0.24811000  0.49948570  0.45460020
   0.74992036  0.00000068  0.45475848
   0.75189000  0.49948570  0.45460020
   0.50000000  0.48788905  0.50159424
   0.50000000  0.61404989  0.50268688
Direct configuration=     4
   0.00000000 -0.00005261  0.00094213
   0.00000000  0.50008156  0.00094970
   0.50000000  0.00003620  0.00093048
   0.50000000  0.49992328  0.00090078
   0.25023500  0.25012716  0.00097038
   0.25011644  0.74988062  0.00097459
   0.74976500  0.25012716  0.00097038
   0.74988356  0.74988062  0.00097459
   0.00000000  0.25003783  0.06539108
   0.00000000  0.74995920  0.06537874
   0.50000000  0.24998038  0.06536955
   0.50000000  0.75028591  0.06539676
   0.25004562 -0.00008734  0.06539377
   0.24986154  0.49995647  0.06538287
   0.74995438 -0.00008734  0.06539377
   0.75013846  0.49995647  0.06538287
   0.00000000 -0.00011499  0.13147942
   0.00000000  0.50004179  0.13146014
   0.50000000 -0.00005891  0.13145798
   0.50000000  0.49989714  0.13139436
   0.25022132  0.25015802  0.13150087
   0.25011674  0.74995756  0.13149230
   0.74977868  0.25015802  0.13150087
   0.74988326  0.74995756  0.13149230
   0.00000000  0.25013071  0.19687095
   0.00000000  0.74988350  0.19693516
   0.50000000  0.25019349  0.19688270
   0.50000000  0.74987991  0.19682092
   0.25013342 -0.00008294  0.19692102
   0.25013989  0.50004472  0.19688287
   0.74986658 -0.00008294  0.19692102
   0.74986011  0.50004472  0.19688287
   0.00000000  0.00004417  0.26186414
   0.00000000  0.49991128  0.26173241
   0.50000000 -0.00012851  0.26171140
   0.50000000  0.49993103  0.26193949
   0.25008403  0.25011215  0.26187872
   0.25017091  0.75000913  0.26193159
   0.74991597  0.25011215  0.26187872
   0.74982909  0.75000913  0.26193159
   0.00000000  0.24991070  0.32699494
   0.00000000  0.74999702  0.32693244
   0.50000000  0.24931531  0.32692280
   0.50000000  0.75032469  0.32700943
   0.24988728  0.00017073  0.32703772
   0.24947562  0.50002365  0.32700787
   0.75011272  0.00017073  0.32703772
   0.75052438  0.50002365  0.32700787
   0.00000000  0.00006702  0.39162190
   0.00000000  0.50024095  0.39184637
   0.50000000 -0.00037617  0.39167383
   0.50000000  0.49908417  0.39058691
   0.25031938  0.25032897  0.39185653
   0.25003761  0.75001449  0.39171473
   0.74968062  0.25032897  0.39185653
   0.74996239  0.75001449  0.39171473
   0.00000000  0.24992263  0.45473184
   0.00000000  0.74999551  0.45463837
   0.50000000  0.24753918  0.45473630
   0.50000000  0.75643284  0.45377650
   0.24995209  0.00006913  0.45475442
   0.24714188  0.49910158  0.45459803
   0.75004791  0.00006913  0.45475442
   0.75285812  0.49910158  0.45459803
   0.50000000  0.48823406  0.50130314
   0.50000000  0.61263636  0.50367238
Direct configuration=     5
   0.00000000 -0.00010367  0.00198231
   0.00000000  0.50016166  0.00198888
   0.50000000  0.00007442  0.00194323
   0.50000000  0.49985822  0.00187980
   0.25049498  0.25026488  0.00203205
   0.25026478  0.74974610  0.00203982
   0.74950502  0.25026488  0.00203205
   0.74973522  0.74974610  0.00203982
   0.00000000  0.25006901  0.06531784
   0.00000000  0.74992131  0.06529134
   0.50000000  0.24995242  0.06527320
   0.50000000  0.75058685  0.06532787
   0.25008593 -0.00017340  0.06532509
   0.24971311  0.49991120  0.06530169
   0.74991407 -0.00017340  0.06532509
   0.75028688  0.49991120  0.06530169
   0.00000000 -0.00022587  0.13132277
   0.00000000  0.50009658  0.13128302
   0.50000000 -0.00010415  0.13127880
   0.50000000  0.49980054  0.13114390
   0.25045791  0.25030173  0.13136306
   0.25023880  0.74991236  0.13134504
   0.74954209  0.25030173  0.13136306
   0.74976120  0.74991236  0.13134504
   0.00000000  0.25027318  0.19695639
   0.00000000  0.74975482  0.19709255
   0.50000000  0.25041563  0.19698262
   0.50000000  0.74974189  0.19685448
   0.25027688 -0.00017309  0.19706612
   0.25029214  0.50009377  0.19699380
   0.74972312 -0.00017309  0.19706612
   0.74970786  0.50009377  0.19699380
   0.00000000  0.00009722  0.26185755
   0.00000000  0.49982174  0.26158742
   0.50000000 -0.00025755  0.26153773
   0.50000000  0.49987684  0.26200882
   0.25019157  0.25022478  0.26188214
   0.25037815  0.75000668  0.26199237
   0.74980843  0.25022478  0.26188214
   0.74962185  0.75000668  0.26199237
   0.00000000  0.24984848  0.32636362
   0.00000000  0.74998839  0.32622271
   0.50000000  0.24848083  0.32619789
   0.50000000  0.75076756  0.32638401
   0.24976136  0.00036275  0.32646472
   0.24880459  0.50002474  0.32639247
   0.75023864  0.00036275  0.32646472
   0.75119541  0.50002474  0.32639247
   0.00000000  0.00016249  0.39133241
   0.00000000  0.50051798  0.39175774
   0.50000000 -0.00047334  0.39131987
   0.50000000  0.49817409  0.38922560
   0.25065332  0.25057624  0.39178725
   0.24997578  0.75000720  0.39147026
   0.74934668  0.25057624  0.39178725
   0.75002422  0.75000720  0.39147026
   0.00000000  0.24964876  0.45469025
   0.00000000  0.75011312  0.45448224
   0.50000000  0.24587484  0.45489975
   0.50000000  0.76191167  0.45308724
   0.24969285  0.00020826  0.45474616
   0.24517425  0.49832087  0.45459362
   0.75030715  0.00020826  0.45474616
   0.75482575  0.49832087  0.45459362
   0.50000000  0.48893527  0.50071150
   0.50000000  0.60976346  0.50567534
Direct configuration=     6
   0.00000000 -0.00011777  0.00226946
   0.00000000  0.50018377  0.00227575
   0.50000000  0.00008497  0.00222281
   0.50000000  0.49984026  0.00215006
   0.25056675  0.25030290  0.00232513
   0.25030573  0.74970896  0.00233388
   0.74943325  0.25030290  0.00232513
   0.74969427  0.74970896  0.00233388
   0.00000000  0.25007761  0.06529762
   0.00000000  0.74991085  0.06526721
   0.50000000  0.24994470  0.06524660
   0.50000000  0.75066993  0.06530886
   0.25009706 -0.00019715  0.06530613
   0.24967214  0.49989870  0.06527928
   0.74990294 -0.00019715  0.06530613
   0.75032786  0.49989870  0.06527928
   0.00000000 -0.00025648  0.13127952
   0.00000000  0.50011170  0.13123413
   0.50000000 -0.00011663  0.13122934
   0.50000000  0.49977387  0.13107476
   0.25052323  0.25034139  0.13132501
   0.25027249  0.74989988  0.13130438
   0.74947677  0.25034139  0.13132501
   0.74972751  0.74989988  0.13130438
   0.00000000  0.25031250  0.19697998
   0.00000000  0.74971930  0.19713599
   0.50000000  0.25047695  0.19701020
   0.50000000  0.74970380  0.19686375
   0.25031649 -0.00019798  0.19710617
   0.25033418  0.50010731  0.19702442
   0.74968351 -0.00019798  0.19710617
   0.74966582  0.50010731  0.19702442
   0.00000000  0.00011186  0.26185572
   0.00000000  0.49979702  0.26154740
   0.50000000 -0.00029317  0.26148979
   0.50000000  0.49986187  0.26202796
   0.25022125  0.25025587  0.26188309
   0.25043536  0.75000601  0.26200915
   0.74977875  0.25025587  0.26188309
   0.74956464  0.75000601  0.26200915
   0.00000000  0.24983130  0.32618934
   0.00000000  0.74998600  0.32602679
   0.50000000  0.24825047  0.32599778
   0.50000000  0.75088982  0.32621135
   0.24972660  0.00041576  0.32630654
   0.24861935  0.50002504  0.32622259
   0.75027340  0.00041576  0.32630654
   0.75138065  0.50002504  0.32622259
   0.00000000  0.00018885  0.39125249
   0.00000000  0.50059445  0.39173328
   0.50000000 -0.00050017  0.39122216
   0.50000000  0.49792285  0.38884981
   0.25074551  0.25064451  0.39176812
   0.24995871  0.75000519  0.39140277
   0.74925449  0.25064451  0.39176812
   0.75004129  0.75000519  0.39140277
   0.00000000  0.24957316  0.45467877
   0.00000000  0.75014559  0.45443913
   0.50000000  0.24541539  0.45494487
   0.50000000  0.76342413  0.45289697
   0.24962128  0.00024666  0.45474388
   0.24463107  0.49810536  0.45459240
   0.75037872  0.00024666  0.45474388
   0.75536893  0.49810536  0.45459240
   0.50000000  0.48912884  0.50054818
   0.50000000  0.60897038  0.50622827
Direct configuration=     7
   0.00000000 -0.00009691  0.00274278
   0.00000000  0.50016890  0.00271700
   0.50000000  0.00009841  0.00265429
   0.50000000  0.49989225  0.00259179
   0.25059825  0.25031005  0.00278592
   0.25037839  0.74965294  0.00279664
   0.74940175  0.25031005  0.00278592
   0.74962161  0.74965294  0.00279664
   0.00000000  0.24998942  0.06570592
   0.00000000  0.74992602  0.06567066
   0.50000000  0.24991587  0.06564275
   0.50000000  0.75060014  0.06569883
   0.25004453 -0.00014844  0.06571130
   0.24969346  0.49992338  0.06567678
   0.74995547 -0.00014844  0.06571130
   0.75030654  0.49992338  0.06567678
   0.00000000 -0.00025501  0.13135915
   0.00000000  0.50013627  0.13131077
   0.50000000 -0.00004386  0.13130314
   0.50000000  0.49980051  0.13106531
   0.25050735  0.25028391  0.13138832
   0.25021799  0.74988241  0.13136132
   0.74949265  0.25028391  0.13138832
   0.74978201  0.74988241  0.13136132
   0.00000000  0.25023915  0.19684097
   0.00000000  0.74974352  0.19704080
   0.50000000  0.25053218  0.19690408
   0.50000000  0.74956013  0.19673628
   0.25025354 -0.00019723  0.19698863
   0.25041277  0.50016379  0.19691405
   0.74974646 -0.00019723  0.19698863
   0.74958723  0.50016379  0.19691405
   0.00000000  0.00016179  0.26159594
   0.00000000  0.49975310  0.26124267
   0.50000000 -0.00036904  0.26119443
   0.50000000  0.49989472  0.26186027
   0.25017515  0.25024618  0.26160695
   0.25049302  0.75001736  0.26176350
   0.74982485  0.25024618  0.26160695
   0.74950698  0.75001736  0.26176350
   0.00000000  0.24991667  0.32613980
   0.00000000  0.75001197  0.32588858
   0.50000000  0.24764084  0.32573306
   0.50000000  0.75120900  0.32598941
   0.24963652  0.00053843  0.32618966
   0.24803515  0.49993892  0.32601090
   0.75036348  0.00053843  0.32618966
   0.75196485  0.49993892  0.32601090
   0.00000000  0.00032308  0.39091696
   0.00000000  0.50056618  0.39130696
   0.50000000  0.00071061  0.39053757
   0.50000000  0.49821153  0.38882198
   0.25079015  0.25056494  0.39147379
   0.24977585  0.74971847  0.39104707
   0.74920985  0.25056494  0.39147379
   0.75022415  0.74971847  0.39104707
   0.00000000  0.24890069  0.45454915
   0.00000000  0.75052811  0.45423525
   0.50000000  0.24548249  0.45478153
   0.50000000  0.76214354  0.45314781
   0.24874505  0.00071040  0.45458870
   0.24512892  0.49818519  0.45436585
   0.75125495  0.00071040  0.45458870
   0.75487108  0.49818519  0.45436585
   0.50000000  0.49131492  0.50035958
   0.50000000  0.60656620  0.50722775
Direct configuration=     8
   0.00000000 -0.00004754  0.00386289
   0.00000000  0.50013369  0.00376120
   0.50000000  0.00013022  0.00367538
   0.50000000  0.50001528  0.00363714
   0.25067279  0.25032697  0.00387637
   0.25055032  0.74952037  0.00389174
   0.74932721  0.25032697  0.00387637
   0.74944968  0.74952037  0.00389174
   0.00000000  0.24978070  0.06667216
   0.00000000  0.74996191  0.06662543
   0.50000000  0.24984765  0.06658022
   0.50000000  0.75043499  0.06662169
   0.24992023 -0.00003318  0.06667014
   0.24974390  0.49998178  0.06661746
   0.75007977 -0.00003318  0.06667014
   0.75025610  0.49998178  0.06661746
   0.00000000 -0.00025153  0.13154759
   0.00000000  0.50019442  0.13149214
   0.50000000  0.00012837  0.13147780
   0.50000000  0.49986355  0.13104293
   0.25046977  0.25014789  0.13153815
   0.25008901  0.74984108  0.13149607
   0.74953023  0.25014789  0.13153815
   0.74991099  0.74984108  0.13149607
   0.00000000  0.25006555  0.19651200
   0.00000000  0.74980084  0.19681553
   0.50000000  0.25066288  0.19665294
   0.50000000  0.74922016  0.19643463
   0.25010457 -0.00019544  0.19671047
   0.25059877  0.50029744  0.19665287
   0.74989543 -0.00019544  0.19671047
   0.74940122  0.50029744  0.19665287
   0.00000000  0.00027996  0.26098116
   0.00000000  0.49964918  0.26052152
   0.50000000 -0.00054859  0.26049547
   0.50000000  0.49997246  0.26146345
   0.25006605  0.25022323  0.26095348
   0.25062946  0.75004422  0.26118216
   0.74993395  0.25022323  0.26095348
   0.74937054  0.75004422  0.26118216
   0.00000000  0.25011870  0.32602254
   0.00000000  0.75007343  0.32556151
   0.50000000  0.24619814  0.32510662
   0.50000000  0.75196434  0.32546418
   0.24942334  0.00082873  0.32591306
   0.24665265  0.49973511  0.32550994
   0.75057666  0.00082873  0.32591306
   0.75334735  0.49973511  0.32550994
   0.00000000  0.00064074  0.39012292
   0.00000000  0.50049929  0.39029809
   0.50000000  0.00357592  0.38891749
   0.50000000  0.49889469  0.38875612
   0.25089579  0.25037665  0.39077726
   0.24934311  0.74903995  0.39020531
   0.74910421  0.25037665  0.39077726
   0.75065689  0.74903995  0.39020531
   0.00000000  0.24730929  0.45424242
   0.00000000  0.75143334  0.45375276
   0.50000000  0.24564127  0.45439498
   0.50000000  0.75911303  0.45374144
   0.24667147  0.00180785  0.45422148
   0.24630708  0.49837411  0.45382973
   0.75332853  0.00180785  0.45422148
   0.75369292  0.49837411  0.45382973
   0.50000000  0.49648828  0.49991327
   0.50000000  0.60087670  0.50959302
Direct configuration=     9
   0.00000000 -0.00005082  0.00418118
   0.00000000  0.50011508  0.00407011
   0.50000000  0.00012991  0.00398385
   0.50000000  0.50001789  0.00395346
   0.25065815  0.25031907  0.00418751
   0.25054688  0.74952529  0.00420397
   0.74934185  0.25031907  0.00418751
   0.74945312  0.74952529  0.00420397
   0.00000000  0.24977835  0.06700623
   0.00000000  0.74996039  0.06695091
   0.50000000  0.24981930  0.06689868
   0.50000000  0.75043278  0.06694333
   0.24991956 -0.00002194  0.06699773
   0.24972991  0.49997517  0.06693822
   0.75008044 -0.00002194  0.06699773
   0.75027009  0.49997517  0.06693822
   0.00000000 -0.00027247  0.13169104
   0.00000000  0.50018137  0.13163769
   0.50000000  0.00014071  0.13162099
   0.50000000  0.49986079  0.13115055
   0.25044288  0.25013596  0.13167200
   0.25004900  0.74985236  0.13162590
   0.74955712  0.25013596  0.13167200
   0.74995100  0.74985236  0.13162590
   0.00000000  0.25001770  0.19639196
   0.00000000  0.74983580  0.19671956
   0.50000000  0.25071112  0.19655552
   0.50000000  0.74915232  0.19632918
   0.25006326 -0.00020833  0.19659461
   0.25065977  0.50031507  0.19654150
   0.74993674 -0.00020833  0.19659461
   0.74934023  0.50031507  0.19654150
   0.00000000  0.00031744  0.26081431
   0.00000000  0.49962950  0.26031853
   0.50000000 -0.00060358  0.26029830
   0.50000000  0.49995424  0.26134817
   0.24998127  0.25019110  0.26076006
   0.25059340  0.75008248  0.26100342
   0.75001873  0.25019110  0.26076006
   0.74940660  0.75008248  0.26100342
   0.00000000  0.25008876  0.32588929
   0.00000000  0.75020275  0.32538576
   0.50000000  0.24649452  0.32487496
   0.50000000  0.75185820  0.32529051
   0.24922726  0.00082207  0.32571739
   0.24671742  0.49964699  0.32531634
   0.75077274  0.00082207  0.32571739
   0.75328258  0.49964699  0.32531634
   0.00000000  0.00062500  0.38988520
   0.00000000  0.50035918  0.39009973
   0.50000000  0.00341540  0.38877956
   0.50000000  0.49910827  0.38875934
   0.25086586  0.25050271  0.39057010
   0.24958257  0.74908974  0.39003667
   0.74913414  0.25050271  0.39057010
   0.75041743  0.74908974  0.39003667
   0.00000000  0.24731057  0.45405560
   0.00000000  0.75147719  0.45352928
   0.50000000  0.24546372  0.45410241
   0.50000000  0.75843146  0.45372987
   0.24657554  0.00182546  0.45398970
   0.24638106  0.49841213  0.45350623
   0.75342446  0.00182546  0.45398970
   0.75361894  0.49841213  0.45350623
   0.50000000  0.49652327  0.49973408
   0.50000000  0.60133803  0.51055013
Direct configuration=    10
   0.00000000 -0.00005442  0.00453123
   0.00000000  0.50009461  0.00440985
   0.50000000  0.00012958  0.00432309
   0.50000000  0.50002076  0.00430134
   0.25064206  0.25031039  0.00452970
   0.25054310  0.74953070  0.00454735
   0.74935794  0.25031039  0.00452970
   0.74945690  0.74953070  0.00454735
   0.00000000  0.24977577  0.06737364
   0.00000000  0.74995873  0.06730886
   0.50000000  0.24978812  0.06724891
   0.50000000  0.75043035  0.06729706
   0.24991883 -0.00000957  0.06735801
   0.24971453  0.49996790  0.06729098
   0.75008117 -0.00000957  0.06735801
   0.75028547  0.49996790  0.06729098
   0.00000000 -0.00029550  0.13184882
   0.00000000  0.50016702  0.13179776
   0.50000000  0.00015428  0.13177848
   0.50000000  0.49985776  0.13126892
   0.25041330  0.25012284  0.13181921
   0.25000499  0.74986476  0.13176868
   0.74958670  0.25012284  0.13181921
   0.74999501  0.74986476  0.13176868
   0.00000000  0.24996506  0.19625993
   0.00000000  0.74987425  0.19661402
   0.50000000  0.25076416  0.19644839
   0.50000000  0.74907770  0.19621320
   0.25001783 -0.00022249  0.19646720
   0.25072686  0.50033446  0.19641903
   0.74998217 -0.00022249  0.19646720
   0.74927314  0.50033446  0.19641903
   0.00000000  0.00035866  0.26063081
   0.00000000  0.49960786  0.26009529
   0.50000000 -0.00066406  0.26008145
   0.50000000  0.49993420  0.26122139
   0.24988802  0.25015575  0.26054733
   0.25055374  0.75012456  0.26080685
   0.75011198  0.25015575  0.26054733
   0.74944626  0.75012456  0.26080685
   0.00000000  0.25005582  0.32574274
   0.00000000  0.75034498  0.32519248
   0.50000000  0.24682047  0.32462019
   0.50000000  0.75174147  0.32509950
   0.24901163  0.00081475  0.32550220
   0.24678865  0.49955007  0.32510342
   0.75098837  0.00081475  0.32550220
   0.75321135  0.49955007  0.32510342
   0.00000000  0.00060769  0.38962376
   0.00000000  0.50020510  0.38988159
   0.50000000  0.00323886  0.38862787
   0.50000000  0.49934317  0.38876288
   0.25083295  0.25064135  0.39034226
   0.24984592  0.74914451  0.38985120
   0.74916705  0.25064135  0.39034226
   0.75015408  0.74914451  0.38985120
   0.00000000  0.24731197  0.45385014
   0.00000000  0.75152541  0.45328350
   0.50000000  0.24526845  0.45378064
   0.50000000  0.75768188  0.45371715
   0.24647003  0.00184482  0.45373479
   0.24646242  0.49845396  0.45315046
   0.75352997  0.00184482  0.45373479
   0.75353758  0.49845396  0.45315046
   0.50000000  0.49656175  0.49953702
   0.50000000  0.60184540  0.51160274
Direct configuration=    11
   0.00000000 -0.00006163  0.00523133
   0.00000000  0.50005366  0.00508932
   0.50000000  0.00012891  0.00500158
   0.50000000  0.50002650  0.00499711
   0.25060987  0.25029303  0.00521408
   0.25053553  0.74954153  0.00523410
   0.74939013  0.25029303  0.00521408
   0.74946447  0.74954153  0.00523410
   0.00000000  0.24977060  0.06810845
   0.00000000  0.74995539  0.06802476
   0.50000000  0.24972575  0.06794938
   0.50000000  0.75042548  0.06800452
   0.24991737  0.00001515  0.06807856
   0.24968376  0.49995336  0.06799651
   0.75008263  0.00001515  0.06807856
   0.75031624  0.49995336  0.06799651
   0.00000000 -0.00034155  0.13216436
   0.00000000  0.50013831  0.13211789
   0.50000000  0.00018142  0.13209344
   0.50000000  0.49985169  0.13150565
   0.25035416  0.25009660  0.13211363
   0.24991698  0.74988956  0.13205424
   0.74964584  0.25009660  0.13211363
   0.75008302  0.74988956  0.13205424
   0.00000000  0.24985980  0.19599588
   0.00000000  0.74995116  0.19640293
   0.50000000  0.25087025  0.19623412
   0.50000000  0.74892848  0.19598124
   0.24992697 -0.00025083  0.19621237
   0.25086103  0.50037325  0.19617408
   0.75007303 -0.00025083  0.19621237
   0.74913897  0.50037325  0.19617408
   0.00000000  0.00044110  0.26026382
   0.00000000  0.49956459  0.25964881
   0.50000000 -0.00078502  0.25964776
   0.50000000  0.49989413  0.26096783
   0.24970154  0.25008506  0.26012188
   0.25047441  0.75020871  0.26041371
   0.75029846  0.25008506  0.26012188
   0.74952559  0.75020871  0.26041371
   0.00000000  0.24998996  0.32544965
   0.00000000  0.75062943  0.32480591
   0.50000000  0.24747237  0.32411065
   0.50000000  0.75150800  0.32471749
   0.24858036  0.00080012  0.32507182
   0.24693111  0.49935624  0.32467758
   0.75141964  0.00080012  0.32507182
   0.75306889  0.49935624  0.32467758
   0.00000000  0.00057306  0.38910088
   0.00000000  0.49989692  0.38944530
   0.50000000  0.00288579  0.38832449
   0.50000000  0.49981296  0.38876997
   0.25076713  0.25091862  0.38988660
   0.25037263  0.74925404  0.38948027
   0.74923287  0.25091862  0.38988660
   0.74962737  0.74925404  0.38948027
   0.00000000  0.24731478  0.45343922
   0.00000000  0.75162185  0.45279195
   0.50000000  0.24487791  0.45313712
   0.50000000  0.75618273  0.45369171
   0.24625903  0.00188355  0.45322498
   0.24662515  0.49853760  0.45243892
   0.75374097  0.00188355  0.45322498
   0.75337485  0.49853760  0.45243892
   0.50000000  0.49663872  0.49914288
   0.50000000  0.60286014  0.51370796
Direct configuration=    12
   0.00000000 -0.00009130  0.00553407
   0.00000000  0.50004598  0.00540005
   0.50000000  0.00011731  0.00531565
   0.50000000  0.49996576  0.00531521
   0.25055797  0.25027174  0.00551302
   0.25044814  0.74961296  0.00553420
   0.74944203  0.25027174  0.00551302
   0.74955186  0.74961296  0.00553420
   0.00000000  0.24986525  0.06831263
   0.00000000  0.74993411  0.06822019
   0.50000000  0.24972125  0.06814681
   0.50000000  0.75051814  0.06821628
   0.24997561 -0.00002911  0.06827537
   0.24963217  0.49991207  0.06819311
   0.75002439 -0.00002911  0.06827537
   0.75036783  0.49991207  0.06819311
   0.00000000 -0.00038777  0.13236841
   0.00000000  0.50011101  0.13234468
   0.50000000  0.00011856  0.13232124
   0.50000000  0.49980882  0.13178081
   0.25035984  0.25015032  0.13233026
   0.24992300  0.74992100  0.13227253
   0.74964016  0.25015032  0.13233026
   0.75007700  0.74992100  0.13227253
   0.00000000  0.24988624  0.19598514
   0.00000000  0.74996201  0.19638962
   0.50000000  0.25091471  0.19624009
   0.50000000  0.74895522  0.19598659
   0.24995884 -0.00028414  0.19619410
   0.25090254  0.50034475  0.19615955
   0.75004116 -0.00028414  0.19619410
   0.74909745  0.50034475  0.19615955
   0.00000000  0.00048582  0.26016526
   0.00000000  0.49958167  0.25956769
   0.50000000 -0.00076563  0.25957379
   0.50000000  0.49989480  0.26081390
   0.24959758  0.25003204  0.26001450
   0.25036948  0.75022401  0.26031358
   0.75040242  0.25003204  0.26001450
   0.74963052  0.75022401  0.26031358
   0.00000000  0.24998302  0.32507670
   0.00000000  0.75053298  0.32454633
   0.50000000  0.24830095  0.32393692
   0.50000000  0.75108492  0.32452941
   0.24871259  0.00071069  0.32473282
   0.24762541  0.49943316  0.32445400
   0.75128741  0.00071069  0.32473282
   0.75237459  0.49943316  0.32445400
   0.00000000  0.00038755  0.38897534