  34  34   0   0
  0.1991679E+02  0.5133596E-09  0.5133596E-09  0.2967047E-08  0.5000000E-15
  1.000000000000000E-004
  CAR 
 unknown system                          
     14.82193272     -9.14001623  301      2.16923924      1.00000000
     -9.140  0.0000E+00  0.0000E+00  0.0000E+00  0.0000E+00
     -9.060  0.0000E+00  0.0000E+00  0.0000E+00  0.0000E+00
     -8.980  0.0000E+00  0.0000E+00  0.0000E+00  0.0000E+00
     -8.900  0.0000E+00  0.0000E+00  0.0000E+00  0.0000E+00
     -8.821  0.0000E+00  0.0000E+00  0.0000E+00  0.0000E+00
     -8.741 -0.5985E-30 -0.5985E-30 -0.4780E-31 -0.4780E-31
     -8.661 -0.2889E-27 -0.2889E-27 -0.2313E-28 -0.2313E-28
     -8.581 -0.1013E-24 -0.1013E-24 -0.8111E-26 -0.8111E-26
     -8.501 -0.2571E-22 -0.2571E-22 -0.2061E-23 -0.2061E-23
     -8.421 -0.4725E-20 -0.4725E-20 -0.3795E-21 -0.3795E-21
     -8.341 -0.6285E-18 -0.6285E-18 -0.5058E-19 -0.5058E-19
     -8.261 -0.5853E-16 -0.5853E-16 -0.4725E-17 -0.4725E-17
     -8.182 -0.4048E-14 -0.4048E-14 -0.3281E-15 -0.3281E-15
     -8.102 -0.2016E-12 -0.2016E-12 -0.1643E-13 -0.1643E-13
     -8.022 -0.7219E-11 -0.7219E-11 -0.5931E-12 -0.5931E-12
     -7.942 -0.1853E-09 -0.1853E-09 -0.1539E-10 -0.1539E-10
     -7.862 -0.3393E-08 -0.3393E-08 -0.2864E-09 -0.2864E-09
     -7.782 -0.4403E-07 -0.4403E-07 -0.3803E-08 -0.3803E-08
     -7.702 -0.4006E-06 -0.4006E-06 -0.3580E-07 -0.3580E-07
     -7.622 -0.2508E-05 -0.2508E-05 -0.2361E-06 -0.2361E-06
     -7.543 -0.1038E-04 -0.1038E-04 -0.1066E-05 -0.1066E-05
     -7.463 -0.2570E-04 -0.2570E-04 -0.3118E-05 -0.3118E-05
     -7.383 -0.2262E-04 -0.2262E-04 -0.4925E-05 -0.4925E-05
     -7.303  0.7226E-04  0.7226E-04  0.8464E-06  0.8464E-06
     -7.223  0.2997E-03  0.2997E-03  0.2479E-04  0.2479E-04
     -7.143  0.5237E-03  0.5237E-03  0.6662E-04  0.6662E-04
     -7.063  0.5197E-03  0.5197E-03  0.1081E-03  0.1081E-03
     -6.983  0.2983E-03  0.2983E-03  0.1320E-03  0.1320E-03
     -6.904  0.1463E-03  0.1463E-03  0.1436E-03  0.1436E-03
     -6.824  0.2590E-03  0.2590E-03  0.1643E-03  0.1643E-03
     -6.744  0.4763E-03  0.4763E-03  0.2024E-03  0.2024E-03
     -6.664  0.4709E-03  0.4709E-03  0.2400E-03  0.2400E-03
     -6.584  0.1754E-03  0.1754E-03  0.2540E-03  0.2540E-03
     -6.504 -0.1991E-04 -0.1991E-04  0.2524E-03  0.2524E-03
     -6.424  0.5050E-03  0.5050E-03  0.2928E-03  0.2928E-03
     -6.344  0.1913E-02  0.1913E-02  0.4456E-03  0.4456E-03
     -6.265  0.3258E-02  0.3258E-02  0.7058E-03  0.7058E-03
     -6.185  0.3283E-02  0.3283E-02  0.9680E-03  0.9680E-03
     -6.105  0.2216E-02  0.2216E-02  0.1145E-02  0.1145E-02
     -6.025  0.1650E-02  0.1650E-02  0.1277E-02  0.1277E-02
     -5.945  0.2384E-02  0.2384E-02  0.1467E-02  0.1467E-02
     -5.865  0.3311E-02  0.3311E-02  0.1732E-02  0.1732E-02
     -5.785  0.2960E-02  0.2960E-02  0.1968E-02  0.1968E-02
     -5.705  0.1482E-02  0.1482E-02  0.2087E-02  0.2087E-02
     -5.626  0.1478E-03  0.1478E-03  0.2098E-02  0.2098E-02
     -5.546 -0.3735E-03 -0.3735E-03  0.2069E-02  0.2069E-02
     -5.466 -0.3545E-04 -0.3545E-04  0.2066E-02  0.2066E-02
     -5.386  0.1277E-02  0.1277E-02  0.2168E-02  0.2168E-02
     -5.306  0.3123E-02  0.3123E-02  0.2417E-02  0.2417E-02
     -5.226  0.4012E-02  0.4012E-02  0.2738E-02  0.2738E-02
     -5.146  0.3028E-02  0.3028E-02  0.2979E-02  0.2979E-02
     -5.066  0.1163E-02  0.1163E-02  0.3072E-02  0.3072E-02
     -4.987 -0.1073E-03 -0.1073E-03  0.3064E-02  0.3064E-02
     -4.907 -0.3355E-03 -0.3355E-03  0.3037E-02  0.3037E-02
     -4.827  0.3822E-03  0.3822E-03  0.3067E-02  0.3067E-02
     -4.747  0.1824E-02  0.1824E-02  0.3213E-02  0.3213E-02
     -4.667  0.3258E-02  0.3258E-02  0.3473E-02  0.3473E-02
     -4.587  0.4117E-02  0.4117E-02  0.3802E-02  0.3802E-02
     -4.507  0.4882E-02  0.4882E-02  0.4192E-02  0.4192E-02
     -4.427  0.5851E-02  0.5851E-02  0.4659E-02  0.4659E-02
     -4.348  0.5985E-02  0.5985E-02  0.5137E-02  0.5137E-02
     -4.268  0.4541E-02  0.4541E-02  0.5500E-02  0.5500E-02
     -4.188  0.2747E-02  0.2747E-02  0.5720E-02  0.5720E-02
     -4.108  0.2285E-02  0.2285E-02  0.5902E-02  0.5902E-02
     -4.028  0.3120E-02  0.3120E-02  0.6151E-02  0.6151E-02
     -3.948  0.4389E-02  0.4389E-02  0.6502E-02  0.6502E-02
     -3.868  0.5984E-02  0.5984E-02  0.6980E-02  0.6980E-02
     -3.789  0.7567E-02  0.7567E-02  0.7584E-02  0.7584E-02
     -3.709  0.8073E-02  0.8073E-02  0.8229E-02  0.8229E-02
     -3.629  0.7482E-02  0.7482E-02  0.8827E-02  0.8827E-02
     -3.549  0.7176E-02  0.7176E-02  0.9400E-02  0.9400E-02
     -3.469  0.7745E-02  0.7745E-02  0.1002E-01  0.1002E-01
     -3.389  0.7960E-02  0.7960E-02  0.1065E-01  0.1065E-01
     -3.309  0.6808E-02  0.6808E-02  0.1120E-01  0.1120E-01
     -3.229  0.4980E-02  0.4980E-02  0.1160E-01  0.1160E-01
     -3.150  0.3698E-02  0.3698E-02  0.1189E-01  0.1189E-01
     -3.070  0.3789E-02  0.3789E-02  0.1219E-01  0.1219E-01
     -2.990  0.5425E-02  0.5425E-02  0.1263E-01  0.1263E-01
     -2.910  0.7728E-02  0.7728E-02  0.1324E-01  0.1324E-01
     -2.830  0.1012E-01  0.1012E-01  0.1405E-01  0.1405E-01
     -2.750  0.1361E-01  0.1361E-01  0.1514E-01  0.1514E-01
     -2.670  0.1904E-01  0.1904E-01  0.1666E-01  0.1666E-01
     -2.590  0.2547E-01  0.2547E-01  0.1870E-01  0.1870E-01
     -2.511  0.3080E-01  0.3080E-01  0.2116E-01  0.2116E-01
     -2.431  0.3262E-01  0.3262E-01  0.2376E-01  0.2376E-01
     -2.351  0.2974E-01  0.2974E-01  0.2614E-01  0.2614E-01
     -2.271  0.2463E-01  0.2463E-01  0.2810E-01  0.2810E-01
     -2.191  0.2224E-01  0.2224E-01  0.2988E-01  0.2988E-01
     -2.111  0.2538E-01  0.2538E-01  0.3191E-01  0.3191E-01
     -2.031  0.3271E-01  0.3271E-01  0.3452E-01  0.3452E-01
     -1.951  0.4086E-01  0.4086E-01  0.3778E-01  0.3778E-01
     -1.872  0.4641E-01  0.4641E-01  0.4149E-01  0.4149E-01
     -1.792  0.4764E-01  0.4764E-01  0.4530E-01  0.4530E-01
     -1.712  0.4519E-01  0.4519E-01  0.4890E-01  0.4890E-01
     -1.632  0.4067E-01  0.4067E-01  0.5215E-01  0.5215E-01
     -1.552  0.3652E-01  0.3652E-01  0.5507E-01  0.5507E-01
     -1.472  0.3514E-01  0.3514E-01  0.5788E-01  0.5788E-01
     -1.392  0.3702E-01  0.3702E-01  0.6083E-01  0.6083E-01
     -1.312  0.4216E-01  0.4216E-01  0.6420E-01  0.6420E-01
     -1.233  0.5037E-01  0.5037E-01  0.6822E-01  0.6822E-01
     -1.153  0.5810E-01  0.5810E-01  0.7287E-01  0.7287E-01
     -1.073  0.6106E-01  0.6106E-01  0.7774E-01  0.7774E-01
     -0.993  0.6155E-01  0.6155E-01  0.8266E-01  0.8266E-01
     -0.913  0.6610E-01  0.6610E-01  0.8794E-01  0.8794E-01
     -0.833  0.7423E-01  0.7423E-01  0.9387E-01  0.9387E-01
     -0.753  0.7887E-01  0.7887E-01  0.1002E+00  0.1002E+00
     -0.673  0.7754E-01  0.7754E-01  0.1064E+00  0.1064E+00
     -0.594  0.7396E-01  0.7396E-01  0.1123E+00  0.1123E+00
     -0.514  0.7108E-01  0.7108E-01  0.1179E+00  0.1179E+00
     -0.434  0.6918E-01  0.6918E-01  0.1235E+00  0.1235E+00
     -0.354  0.6832E-01  0.6832E-01  0.1289E+00  0.1289E+00
     -0.274  0.6802E-01  0.6802E-01  0.1344E+00  0.1344E+00
     -0.194  0.6627E-01  0.6627E-01  0.1397E+00  0.1397E+00
     -0.114  0.6328E-01  0.6328E-01  0.1447E+00  0.1447E+00
     -0.034  0.6151E-01  0.6151E-01  0.1496E+00  0.1496E+00
      0.045  0.6166E-01  0.6166E-01  0.1545E+00  0.1545E+00
      0.125  0.6535E-01  0.6535E-01  0.1598E+00  0.1598E+00
      0.205  0.7511E-01  0.7511E-01  0.1658E+00  0.1658E+00
      0.285  0.8669E-01  0.8669E-01  0.1727E+00  0.1727E+00
      0.365  0.9229E-01  0.9229E-01  0.1801E+00  0.1801E+00
      0.445  0.9228E-01  0.9228E-01  0.1874E+00  0.1874E+00
      0.525  0.9218E-01  0.9218E-01  0.1948E+00  0.1948E+00
      0.605  0.8954E-01  0.8954E-01  0.2019E+00  0.2019E+00
      0.684  0.7512E-01  0.7512E-01  0.2079E+00  0.2079E+00
      0.764  0.4780E-01  0.4780E-01  0.2118E+00  0.2118E+00
      0.844  0.1948E-01  0.1948E-01  0.2133E+00  0.2133E+00
      0.924  0.2465E-02  0.2465E-02  0.2135E+00  0.2135E+00
      1.004 -0.1763E-02 -0.1763E-02  0.2134E+00  0.2134E+00
      1.084  0.3332E-03  0.3332E-03  0.2134E+00  0.2134E+00
      1.164  0.2784E-02  0.2784E-02  0.2136E+00  0.2136E+00
      1.243  0.3912E-02  0.3912E-02  0.2139E+00  0.2139E+00
      1.323  0.4749E-02  0.4749E-02  0.2143E+00  0.2143E+00
      1.403  0.5893E-02  0.5893E-02  0.2148E+00  0.2148E+00
      1.483  0.6384E-02  0.6384E-02  0.2153E+00  0.2153E+00
      1.563  0.5143E-02  0.5143E-02  0.2157E+00  0.2157E+00
      1.643  0.3008E-02  0.3008E-02  0.2160E+00  0.2160E+00
      1.723  0.2629E-02  0.2629E-02  0.2162E+00  0.2162E+00
      1.803  0.5663E-02  0.5663E-02  0.2166E+00  0.2166E+00
      1.882  0.1062E-01  0.1062E-01  0.2175E+00  0.2175E+00
      1.962  0.1413E-01  0.1413E-01  0.2186E+00  0.2186E+00
      2.042  0.1420E-01  0.1420E-01  0.2197E+00  0.2197E+00
      2.122  0.1237E-01  0.1237E-01  0.2207E+00  0.2207E+00
      2.202  0.1131E-01  0.1131E-01  0.2216E+00  0.2216E+00
      2.282  0.1048E-01  0.1048E-01  0.2225E+00  0.2225E+00
      2.362  0.7561E-02  0.7561E-02  0.2231E+00  0.2231E+00
      2.442  0.3662E-02  0.3662E-02  0.2233E+00  0.2233E+00
      2.521  0.2275E-02  0.2275E-02  0.2235E+00  0.2235E+00
      2.601  0.4225E-02  0.4225E-02  0.2239E+00  0.2239E+00
      2.681  0.7207E-02  0.7207E-02  0.2244E+00  0.2244E+00
      2.761  0.8753E-02  0.8753E-02  0.2251E+00  0.2251E+00
      2.841  0.7907E-02  0.7907E-02  0.2258E+00  0.2258E+00
      2.921  0.5811E-02  0.5811E-02  0.2262E+00  0.2262E+00
      3.001  0.4651E-02  0.4651E-02  0.2266E+00  0.2266E+00
      3.081  0.4657E-02  0.4657E-02  0.2270E+00  0.2270E+00
      3.160  0.4172E-02  0.4172E-02  0.2273E+00  0.2273E+00
      3.240  0.3021E-02  0.3021E-02  0.2276E+00  0.2276E+00
      3.320  0.2855E-02  0.2855E-02  0.2278E+00  0.2278E+00
      3.400  0.4664E-02  0.4664E-02  0.2282E+00  0.2282E+00
      3.480  0.7916E-02  0.7916E-02  0.2288E+00  0.2288E+00
      3.560  0.1117E-01  0.1117E-01  0.2297E+00  0.2297E+00
      3.640  0.1267E-01  0.1267E-01  0.2307E+00  0.2307E+00
      3.720  0.1134E-01  0.1134E-01  0.2316E+00  0.2316E+00
      3.799  0.7964E-02  0.7964E-02  0.2322E+00  0.2322E+00
      3.879  0.4861E-02  0.4861E-02  0.2326E+00  0.2326E+00
      3.959  0.3512E-02  0.3512E-02  0.2329E+00  0.2329E+00
      4.039  0.3024E-02  0.3024E-02  0.2331E+00  0.2331E+00
      4.119  0.1997E-02  0.1997E-02  0.2333E+00  0.2333E+00
      4.199  0.6090E-03  0.6090E-03  0.2334E+00  0.2334E+00
      4.279 -0.3171E-03 -0.3171E-03  0.2333E+00  0.2333E+00
      4.359 -0.5416E-03 -0.5416E-03  0.2333E+00  0.2333E+00
      4.438  0.2416E-03  0.2416E-03  0.2333E+00  0.2333E+00
      4.518  0.2576E-02  0.2576E-02  0.2335E+00  0.2335E+00
      4.598  0.5624E-02  0.5624E-02  0.2340E+00  0.2340E+00
      4.678  0.7070E-02  0.7070E-02  0.2345E+00  0.2345E+00
      4.758  0.6152E-02  0.6152E-02  0.2350E+00  0.2350E+00
      4.838  0.4534E-02  0.4534E-02  0.2354E+00  0.2354E+00
      4.918  0.3273E-02  0.3273E-02  0.2356E+00  0.2356E+00
      4.998  0.1933E-02  0.1933E-02  0.2358E+00  0.2358E+00
      5.077  0.5007E-03  0.5007E-03  0.2358E+00  0.2358E+00
      5.157 -0.3140E-03 -0.3140E-03  0.2358E+00  0.2358E+00
      5.237  0.7505E-04  0.7505E-04  0.2358E+00  0.2358E+00
      5.317  0.1913E-02  0.1913E-02  0.2360E+00  0.2360E+00
      5.397  0.4685E-02  0.4685E-02  0.2363E+00  0.2363E+00
      5.477  0.6987E-02  0.6987E-02  0.2369E+00  0.2369E+00
      5.557  0.7998E-02  0.7998E-02  0.2375E+00  0.2375E+00
      5.637  0.8528E-02  0.8528E-02  0.2382E+00  0.2382E+00
      5.716  0.9239E-02  0.9239E-02  0.2390E+00  0.2390E+00
      5.796  0.9133E-02  0.9133E-02  0.2397E+00  0.2397E+00
      5.876  0.7541E-02  0.7541E-02  0.2403E+00  0.2403E+00
      5.956  0.5463E-02  0.5463E-02  0.2407E+00  0.2407E+00
      6.036  0.3786E-02  0.3786E-02  0.2410E+00  0.2410E+00
      6.116  0.2541E-02  0.2541E-02  0.2412E+00  0.2412E+00
      6.196  0.2266E-02  0.2266E-02  0.2414E+00  0.2414E+00
      6.276  0.4170E-02  0.4170E-02  0.2417E+00  0.2417E+00
      6.355  0.7770E-02  0.7770E-02  0.2424E+00  0.2424E+00
      6.435  0.9964E-02  0.9964E-02  0.2432E+00  0.2432E+00
      6.515  0.8867E-02  0.8867E-02  0.2439E+00  0.2439E+00
      6.595  0.6366E-02  0.6366E-02  0.2444E+00  0.2444E+00
      6.675  0.4740E-02  0.4740E-02  0.2448E+00  0.2448E+00
      6.755  0.4243E-02  0.4243E-02  0.2451E+00  0.2451E+00
      6.835  0.4823E-02  0.4823E-02  0.2455E+00  0.2455E+00
      6.914  0.6228E-02  0.6228E-02  0.2460E+00  0.2460E+00
      6.994  0.7190E-02  0.7190E-02  0.2466E+00  0.2466E+00
      7.074  0.7475E-02  0.7475E-02  0.2471E+00  0.2471E+00
      7.154  0.8334E-02  0.8334E-02  0.2478E+00  0.2478E+00
      7.234  0.9823E-02  0.9823E-02  0.2486E+00  0.2486E+00
      7.314  0.1085E-01  0.1085E-01  0.2495E+00  0.2495E+00
      7.394  0.1082E-01  0.1082E-01  0.2503E+00  0.2503E+00
      7.474  0.9199E-02  0.9199E-02  0.2511E+00  0.2511E+00
      7.553  0.6042E-02  0.6042E-02  0.2515E+00  0.2515E+00
      7.633  0.3483E-02  0.3483E-02  0.2518E+00  0.2518E+00
      7.713  0.3592E-02  0.3592E-02  0.2521E+00  0.2521E+00
      7.793  0.5920E-02  0.5920E-02  0.2526E+00  0.2526E+00
      7.873  0.8638E-02  0.8638E-02  0.2533E+00  0.2533E+00
      7.953  0.1032E-01  0.1032E-01  0.2541E+00  0.2541E+00
      8.033  0.1009E-01  0.1009E-01  0.2549E+00  0.2549E+00
      8.113  0.7962E-02  0.7962E-02  0.2555E+00  0.2555E+00
      8.192  0.5501E-02  0.5501E-02  0.2560E+00  0.2560E+00
      8.272  0.4461E-02  0.4461E-02  0.2563E+00  0.2563E+00
      8.352  0.5057E-02  0.5057E-02  0.2567E+00  0.2567E+00
      8.432  0.7050E-02  0.7050E-02  0.2573E+00  0.2573E+00
      8.512  0.1027E-01  0.1027E-01  0.2581E+00  0.2581E+00
      8.592  0.1290E-01  0.1290E-01  0.2592E+00  0.2592E+00
      8.672  0.1223E-01  0.1223E-01  0.2601E+00  0.2601E+00
      8.752  0.8308E-02  0.8308E-02  0.2608E+00  0.2608E+00
      8.831  0.4416E-02  0.4416E-02  0.2611E+00  0.2611E+00
      8.911  0.3264E-02  0.3264E-02  0.2614E+00  0.2614E+00
      8.991  0.4331E-02  0.4331E-02  0.2618E+00  0.2618E+00
      9.071  0.5507E-02  0.5507E-02  0.2622E+00  0.2622E+00
      9.151  0.5959E-02  0.5959E-02  0.2627E+00  0.2627E+00
      9.231  0.6636E-02  0.6636E-02  0.2632E+00  0.2632E+00
      9.311  0.8477E-02  0.8477E-02  0.2639E+00  0.2639E+00
      9.391  0.1067E-01  0.1067E-01  0.2647E+00  0.2647E+00
      9.470  0.1111E-01  0.1111E-01  0.2656E+00  0.2656E+00
      9.550  0.8930E-02  0.8930E-02  0.2663E+00  0.2663E+00
      9.630  0.5970E-02  0.5970E-02  0.2668E+00  0.2668E+00
      9.710  0.4708E-02  0.4708E-02  0.2672E+00  0.2672E+00
      9.790  0.5356E-02  0.5356E-02  0.2676E+00  0.2676E+00
      9.870  0.6430E-02  0.6430E-02  0.2681E+00  0.2681E+00
      9.950  0.7659E-02  0.7659E-02  0.2687E+00  0.2687E+00
     10.030  0.9806E-02  0.9806E-02  0.2695E+00  0.2695E+00
     10.109  0.1170E-01  0.1170E-01  0.2705E+00  0.2705E+00
     10.189  0.1104E-01  0.1104E-01  0.2713E+00  0.2713E+00
     10.269  0.8235E-02  0.8235E-02  0.2720E+00  0.2720E+00
     10.349  0.5991E-02  0.5991E-02  0.2725E+00  0.2725E+00
     10.429  0.5730E-02  0.5730E-02  0.2729E+00  0.2729E+00
     10.509  0.7034E-02  0.7034E-02  0.2735E+00  0.2735E+00
     10.589  0.9092E-02  0.9092E-02  0.2742E+00  0.2742E+00
     10.669  0.1077E-01  0.1077E-01  0.2751E+00  0.2751E+00
     10.748  0.1094E-01  0.1094E-01  0.2760E+00  0.2760E+00
     10.828  0.1029E-01  0.1029E-01  0.2768E+00  0.2768E+00
     10.908  0.1062E-01  0.1062E-01  0.2776E+00  0.2776E+00
     10.988  0.1124E-01  0.1124E-01  0.2785E+00  0.2785E+00
     11.068  0.1017E-01  0.1017E-01  0.2793E+00  0.2793E+00
     11.148  0.8644E-02  0.8644E-02  0.2800E+00  0.2800E+00
     11.228  0.9704E-02  0.9704E-02  0.2808E+00  0.2808E+00
     11.308  0.1325E-01  0.1325E-01  0.2819E+00  0.2819E+00
     11.387  0.1553E-01  0.1553E-01  0.2831E+00  0.2831E+00
     11.467  0.1371E-01  0.1371E-01  0.2842E+00  0.2842E+00
     11.547  0.9285E-02  0.9285E-02  0.2849E+00  0.2849E+00
     11.627  0.5990E-02  0.5990E-02  0.2854E+00  0.2854E+00
     11.707  0.5702E-02  0.5702E-02  0.2859E+00  0.2859E+00
     11.787  0.7491E-02  0.7491E-02  0.2865E+00  0.2865E+00
     11.867  0.8994E-02  0.8994E-02  0.2872E+00  0.2872E+00
     11.946  0.8225E-02  0.8225E-02  0.2878E+00  0.2878E+00
     12.026  0.5387E-02  0.5387E-02  0.2883E+00  0.2883E+00
     12.106  0.2540E-02  0.2540E-02  0.2885E+00  0.2885E+00
     12.186  0.9790E-03  0.9790E-03  0.2886E+00  0.2886E+00
     12.266  0.4159E-03  0.4159E-03  0.2886E+00  0.2886E+00
     12.346  0.5613E-03  0.5613E-03  0.2886E+00  0.2886E+00
     12.426  0.1524E-02  0.1524E-02  0.2888E+00  0.2888E+00
     12.506  0.2722E-02  0.2722E-02  0.2890E+00  0.2890E+00
     12.585  0.3065E-02  0.3065E-02  0.2892E+00  0.2892E+00
     12.665  0.2518E-02  0.2518E-02  0.2894E+00  0.2894E+00
     12.745  0.2133E-02  0.2133E-02  0.2896E+00  0.2896E+00
     12.825  0.2207E-02  0.2207E-02  0.2898E+00  0.2898E+00
     12.905  0.1935E-02  0.1935E-02  0.2899E+00  0.2899E+00
     12.985  0.1051E-02  0.1051E-02  0.2900E+00  0.2900E+00
     13.065  0.2227E-03  0.2227E-03  0.2900E+00  0.2900E+00
     13.145 -0.1031E-03 -0.1031E-03  0.2900E+00  0.2900E+00
     13.224 -0.9939E-04 -0.9939E-04  0.2900E+00  0.2900E+00
     13.304 -0.3847E-04 -0.3847E-04  0.2900E+00  0.2900E+00
     13.384 -0.9035E-05 -0.9035E-05  0.2900E+00  0.2900E+00
     13.464 -0.1411E-05 -0.1411E-05  0.2900E+00  0.2900E+00
     13.544 -0.1519E-06 -0.1519E-06  0.2900E+00  0.2900E+00
     13.624 -0.1148E-07 -0.1148E-07  0.2900E+00  0.2900E+00
     13.704 -0.6154E-09 -0.6154E-09  0.2900E+00  0.2900E+00
     13.784 -0.2356E-10 -0.2356E-10  0.2900E+00  0.2900E+00
     13.863 -0.6470E-12 -0.6470E-12  0.2900E+00  0.2900E+00
     13.943 -0.1278E-13 -0.1278E-13  0.2900E+00  0.2900E+00
     14.023 -0.1815E-15 -0.1815E-15  0.2900E+00  0.2900E+00
     14.103 -0.2317E-17 -0.2317E-17  0.2900E+00  0.2900E+00
     14.183  0.0000E+00  0.0000E+00  0.2900E+00  0.2900E+00
     14.263  0.0000E+00  0.0000E+00  0.2900E+00  0.2900E+00
     14.343  0.0000E+00  0.0000E+00  0.2900E+00  0.2900E+00
     14.423  0.0000E+00  0.0000E+00  0.2900E+00  0.2900E+00
     14.502  0.0000E+00  0.0000E+00  0.2900E+00  0.2900E+00
     14.582  0.0000E+00  0.0000E+00  0.2900E+00  0.2900E+00
     14.662  0.0000E+00  0.0000E+00  0.2900E+00  0.2900E+00
     14.742  0.0000E+00  0.0000E+00  0.2900E+00  0.2900E+00
     14.822  0.0000E+00  0.0000E+00  0.2900E+00  0.2900E+00
