<?xml version="1.0" encoding="ISO-8859-1"?>
<modeling>
 <generator>
  <i name="program" type="string">vasp </i>
  <i name="version" type="string">6.3.2  </i>
  <i name="subversion" type="string">27Jun22 (build Aug 17 2022 15:43:34) complex                          parallel </i>
  <i name="platform" type="string">tv2STDVTST </i>
  <i name="date" type="string">2025 02 17 </i>
  <i name="time" type="string">20:19:37 </i>
 </generator>
 <incar>
  <i type="int" name="ISTART">     0</i>
  <i type="string" name="PREC">Normal</i>
  <i type="int" name="ISPIN">     2</i>
  <i type="int" name="ICHARG">     2</i>
  <i type="int" name="IBRION">     2</i>
  <i name="EDIFF">      0.00020000</i>
  <i name="EDIFFG">     -0.03000000</i>
  <i type="int" name="NSW">   800</i>
  <i type="int" name="ISIF">     2</i>
  <i type="int" name="ISYM">     1</i>
  <i name="ENCUT">    400.00000000</i>
  <i name="POTIM">      0.50000000</i>
  <i type="logical" name="LREAL"> F  </i>
  <i type="int" name="ISMEAR">     1</i>
  <i name="SIGMA">      0.20000000</i>
  <i type="logical" name="LWAVE"> F  </i>
  <i type="logical" name="LCHARG"> F  </i>
  <i type="string" name="GGA">PE</i>
  <i type="int" name="IVDW">    11</i>
 </incar>
 <primitive_cell>
  <structure name="primitive_cell" >
   <crystal>
    <varray name="basis" >
     <v>       5.13359547       0.00000000       0.00000000 </v>
     <v>       2.56679773       4.44582409       0.00000000 </v>
     <v>       0.00000000       0.00000000      29.67047119 </v>
    </varray>
    <i name="volume">    677.17101477 </i>
    <varray name="rec_basis" >
     <v>       0.19479525      -0.11246509       0.00000000 </v>
     <v>       0.00000000       0.22493018       0.00000000 </v>
     <v>       0.00000000       0.00000000       0.03370354 </v>
    </varray>
   </crystal>
   <varray name="positions" >
    <v>       0.00000000       0.00000000       0.00000000 </v>
    <v>       1.00000000       0.50000000       0.00000000 </v>
    <v>       0.50000000       0.00000000       0.00000000 </v>
    <v>       0.50000000       0.50000000       0.00000000 </v>
    <v>       0.16666667       0.16666667       0.07063526 </v>
    <v>       0.16666667       0.66666667       0.07063526 </v>
    <v>       0.66666667       0.16666667       0.07063526 </v>
    <v>       0.66666667       0.66666667       0.07063526 </v>
    <v>       0.33333333       0.33333333       0.13847021 </v>
    <v>       0.33333333       0.83333333       0.13847021 </v>
    <v>       0.83333333       0.33333333       0.13847021 </v>
    <v>       0.83333333       0.83333333       0.13847021 </v>
    <v>       0.00000000       0.00000000       0.20667428 </v>
    <v>       1.00000000       0.50000000       0.20667428 </v>
    <v>       0.50000000       0.00000000       0.20667428 </v>
    <v>       0.50000000       0.50000000       0.20667428 </v>
    <v>       0.16666667       0.16666667       0.27488859 </v>
    <v>       0.16666667       0.66666667       0.27488859 </v>
    <v>       0.66666667       0.16666667       0.27488859 </v>
    <v>       0.66666667       0.66666667       0.27488859 </v>
    <v>       0.33333333       0.33333333       0.34319917 </v>
    <v>       0.33333333       0.83333333       0.34319917 </v>
    <v>       0.83333333       0.33333333       0.34319917 </v>
    <v>       0.83333333       0.83333333       0.34319917 </v>
    <v>       0.00000000       0.00000000       0.41105828 </v>
    <v>       1.00000000       0.50000000       0.41105828 </v>
    <v>       0.50000000       0.00000000       0.41105828 </v>
    <v>       0.50000000       0.50000000       0.41105828 </v>
    <v>       0.16666667       0.16666667       0.48054462 </v>
    <v>       0.16666667       0.66666667       0.48054462 </v>
    <v>       0.66666667       0.16666667       0.48054462 </v>
    <v>       0.66666667       0.66666667       0.48054462 </v>
    <v>       0.91666667       0.66666667       0.53425930 </v>
    <v>       0.83276771       0.83446458       0.53425930 </v>
   </varray>
  </structure>
  <varray name="primitive_index" >
   <v type="int" >        1 </v>
   <v type="int" >        2 </v>
   <v type="int" >        3 </v>
   <v type="int" >        4 </v>
   <v type="int" >        5 </v>
   <v type="int" >        6 </v>
   <v type="int" >        7 </v>
   <v type="int" >        8 </v>
   <v type="int" >        9 </v>
   <v type="int" >       10 </v>
   <v type="int" >       11 </v>
   <v type="int" >       12 </v>
   <v type="int" >       13 </v>
   <v type="int" >       14 </v>
   <v type="int" >       15 </v>
   <v type="int" >       16 </v>
   <v type="int" >       17 </v>
   <v type="int" >       18 </v>
   <v type="int" >       19 </v>
   <v type="int" >       20 </v>
   <v type="int" >       21 </v>
   <v type="int" >       22 </v>
   <v type="int" >       23 </v>
   <v type="int" >       24 </v>
   <v type="int" >       25 </v>
   <v type="int" >       26 </v>
   <v type="int" >       27 </v>
   <v type="int" >       28 </v>
   <v type="int" >       29 </v>
   <v type="int" >       30 </v>
   <v type="int" >       31 </v>
   <v type="int" >       32 </v>
   <v type="int" >       33 </v>
   <v type="int" >       34 </v>
  </varray>
 </primitive_cell>
 <kpoints>
  <generation param="Monkhorst-Pack">
   <v type="int" name="divisions">       3        3        1 </v>
   <v name="usershift">      0.00000000       0.00000000       0.00000000 </v>
   <v name="genvec1">      0.33333333       0.00000000       0.00000000 </v>
   <v name="genvec2">      0.00000000       0.33333333       0.00000000 </v>
   <v name="genvec3">      0.00000000       0.00000000       1.00000000 </v>
   <v name="shift">      0.00000000       0.00000000       0.00000000 </v>
  </generation>
  <varray name="kpointlist" >
   <v>       0.00000000       0.00000000       0.00000000 </v>
   <v>       0.33333333       0.00000000       0.00000000 </v>
   <v>       0.00000000       0.33333333       0.00000000 </v>
   <v>      -0.33333333       0.33333333       0.00000000 </v>
  </varray>
  <varray name="weights" >
   <v>       0.11111111 </v>
   <v>       0.44444444 </v>
   <v>       0.22222222 </v>
   <v>       0.22222222 </v>
  </varray>
 </kpoints>
 <parameters>
  <separator name="general" >
   <i type="string" name="SYSTEM">unknown system</i>
   <i type="logical" name="LCOMPAT"> F  </i>
  </separator>
  <separator name="electronic" >
   <i type="string" name="PREC">normal</i>
   <i name="ENMAX">    400.00000000</i>
   <i name="ENAUG">    586.98000000</i>
   <i name="EDIFF">      0.00020000</i>
   <i type="int" name="IALGO">    38</i>
   <i type="int" name="IWAVPR">    11</i>
   <i type="int" name="NBANDS">   232</i>
   <i type="int" name="NBANDSLOW">    -1</i>
   <i type="int" name="NBANDSHIGH">    -1</i>
   <i name="NELECT">    354.00000000</i>
   <i type="int" name="TURBO">     0</i>
   <i type="int" name="IRESTART">     0</i>
   <i type="int" name="NREBOOT">     0</i>
   <i type="int" name="NMIN">     0</i>
   <i name="EREF">      0.00000000</i>
   <separator name="electronic smearing" >
    <i type="int" name="ISMEAR">     1</i>
    <i name="SIGMA">      0.20000000</i>
    <i name="KSPACING">      0.50000000</i>
    <i type="logical" name="KGAMMA"> T  </i>
    <i type="logical" name="KBLOWUP"> T  </i>
   </separator>
   <separator name="electronic projectors" >
    <i type="logical" name="LREAL"> F  </i>
    <v name="ROPT">      0.00000000      0.00000000</v>
    <i type="int" name="LMAXPAW">  -100</i>
    <i type="int" name="LMAXMIX">     2</i>
    <i type="logical" name="NLSPLINE"> F  </i>
   </separator>
   <separator name="electronic startup" >
    <i type="int" name="ISTART">     0</i>
    <i type="int" name="ICHARG">     2</i>
    <i type="int" name="INIWAV">     1</i>
   </separator>
   <separator name="electronic spin" >
    <i type="int" name="ISPIN">     2</i>
    <i type="logical" name="LNONCOLLINEAR"> F  </i>
    <v name="MAGMOM">      1.00000000      1.00000000      1.00000000      1.00000000      1.00000000      1.00000000      1.00000000      1.00000000      1.00000000      1.00000000      1.00000000      1.00000000      1.00000000      1.00000000      1.00000000      1.00000000      1.00000000      1.00000000      1.00000000      1.00000000
      1.00000000      1.00000000      1.00000000      1.00000000      1.00000000      1.00000000      1.00000000      1.00000000      1.00000000      1.00000000      1.00000000      1.00000000      1.00000000      1.00000000</v>
    <i name="NUPDOWN">     -1.00000000</i>
    <i type="logical" name="LSORBIT"> F  </i>
    <v name="SAXIS">      0.00000000      0.00000000      1.00000000</v>
    <i type="logical" name="LSPIRAL"> F  </i>
    <v name="QSPIRAL">      0.00000000      0.00000000      0.00000000</v>
    <i type="logical" name="LZEROZ"> F  </i>
   </separator>
   <separator name="electronic exchange-correlation" >
    <i type="logical" name="LASPH"> F  </i>
    <i type="logical" name="LMETAGGA"> F  </i>
   </separator>
   <separator name="electronic convergence" >
    <i type="int" name="NELM">    60</i>
    <i type="int" name="NELMDL">    -5</i>
    <i type="int" name="NELMIN">     2</i>
    <i name="ENINI">    400.00000000</i>
    <separator name="electronic convergence detail" >
     <i type="logical" name="LDIAG"> T  </i>
     <i type="logical" name="LSUBROT"> F  </i>
     <i name="WEIMIN">      0.00100000</i>
     <i name="EBREAK">      0.00000022</i>
     <i name="DEPER">      0.30000000</i>
     <i type="int" name="NRMM">     4</i>
     <i name="TIME">      0.40000000</i>
    </separator>
   </separator>
   <separator name="electronic mixer" >
    <i name="AMIX">      0.40000000</i>
    <i name="BMIX">      1.00000000</i>
    <i name="AMIN">      0.10000000</i>
    <i name="AMIX_MAG">      1.60000000</i>
    <i name="BMIX_MAG">      1.00000000</i>
    <separator name="electronic mixer details" >
     <i type="int" name="IMIX">     4</i>
     <i type="logical" name="MIXFIRST"> F  </i>
     <i type="int" name="MAXMIX">   -45</i>
     <i name="WC">    100.00000000</i>
     <i type="int" name="INIMIX">     1</i>
     <i type="int" name="MIXPRE">     1</i>
     <i type="int" name="MREMOVE">     5</i>
    </separator>
   </separator>
   <separator name="electronic dipolcorrection" >
    <i type="logical" name="LDIPOL"> F  </i>
    <i type="logical" name="LMONO"> F  </i>
    <i type="int" name="IDIPOL">     0</i>
    <i name="EPSILON">      1.00000000</i>
    <v name="DIPOL">   -100.00000000   -100.00000000   -100.00000000</v>
    <i name="EFIELD">      0.00000000</i>
   </separator>
  </separator>
  <separator name="grids" >
   <i type="int" name="NGX">    28</i>
   <i type="int" name="NGY">    28</i>
   <i type="int" name="NGZ">   150</i>
   <i type="int" name="NGXF">    56</i>
   <i type="int" name="NGYF">    56</i>
   <i type="int" name="NGZF">   300</i>
   <i type="logical" name="ADDGRID"> F  </i>
  </separator>
  <separator name="ionic" >
   <i type="int" name="NSW">   800</i>
   <i type="int" name="IBRION">     2</i>
   <i type="int" name="MDALGO">     0</i>
   <i type="int" name="ISIF">     2</i>
   <i name="PSTRESS">      0.00000000</i>
   <i name="EDIFFG">     -0.03000000</i>
   <i type="int" name="NFREE">     1</i>
   <i name="POTIM">      0.50000000</i>
   <i name="SMASS">     -3.00000000</i>
   <i name="SCALEE">      1.00000000</i>
  </separator>
  <separator name="ionic md" >
   <i name="TEBEG">      0.00010000</i>
   <i name="TEEND">      0.00010000</i>
   <i type="int" name="NBLOCK">     1</i>
   <i type="int" name="KBLOCK">   800</i>
   <i type="int" name="NPACO">   256</i>
   <i name="APACO">     10.00000000</i>
  </separator>
  <separator name="symmetry" >
   <i type="int" name="ISYM">     1</i>
   <i name="SYMPREC">      0.00001000</i>
  </separator>
  <separator name="dos" >
   <i type="int" name="LORBIT">     0</i>
   <v name="RWIGS">     -1.00000000     -1.00000000</v>
   <i type="int" name="NEDOS">   301</i>
   <i name="EMIN">     10.00000000</i>
   <i name="EMAX">    -10.00000000</i>
   <i name="EFERMI">      0.00000000</i>
  </separator>
  <separator name="writing" >
   <i type="int" name="NWRITE">     2</i>
   <i type="logical" name="LWAVE"> F  </i>
   <i type="logical" name="LDOWNSAMPLE"> F  </i>
   <i type="logical" name="LCHARG"> F  </i>
   <i type="logical" name="LPARD"> F  </i>
   <i type="logical" name="LVTOT"> F  </i>
   <i type="logical" name="LVHAR"> F  </i>
   <i type="logical" name="LELF"> F  </i>
   <i type="logical" name="LOPTICS"> F  </i>
   <v name="STM">      0.00000000      0.00000000      0.00000000      0.00000000      0.00000000      0.00000000      0.00000000</v>
  </separator>
  <separator name="performance" >
   <i type="int" name="NPAR">     4</i>
   <i type="int" name="NSIM">     4</i>
   <i type="int" name="NBLK">    -1</i>
   <i type="logical" name="LPLANE"> T  </i>
   <i type="logical" name="LSCALAPACK"> T  </i>
   <i type="logical" name="LSCAAWARE"> F  </i>
   <i type="logical" name="LSCALU"> F  </i>
   <i type="logical" name="LASYNC"> F  </i>
   <i type="logical" name="LORBITALREAL"> F  </i>
  </separator>
  <separator name="miscellaneous" >
   <i type="int" name="IDIOT">     3</i>
   <i type="int" name="PHON_NSTRUCT">    -1</i>
   <i type="logical" name="LMUSIC"> F  </i>
   <v name="POMASS">     63.54600000      1.00000000</v>
   <v name="DARWINR">      0.00000000      0.00000000</v>
   <v name="DARWINV">      1.00000000      1.00000000</v>
   <i type="logical" name="LCORR"> T  </i>
  </separator>
  <i type="logical" name="GGA_COMPAT"> T  </i>
  <i type="logical" name="LBERRY"> F  </i>
  <i type="int" name="ICORELEVEL">     0</i>
  <i type="logical" name="LDAU"> F  </i>
  <i type="int" name="I_CONSTRAINED_M">     0</i>
  <separator name="electronic exchange-correlation" >
   <i type="string" name="GGA">PE</i>
   <i type="int" name="VOSKOWN">     0</i>
   <i type="logical" name="LHFCALC"> F  </i>
   <i type="string" name="PRECFOCK"></i>
   <i type="logical" name="LSYMGRAD"> F  </i>
   <i type="logical" name="LHFONE"> F  </i>
   <i type="logical" name="LRHFCALC"> F  </i>
   <i type="logical" name="LTHOMAS"> F  </i>
   <i type="logical" name="LMODELHF"> F  </i>
   <i type="logical" name="LFOCKACE"> F  </i>
   <i name="ENCUT4O">     -1.00000000</i>
   <i type="int" name="EXXOEP">     0</i>
   <i type="int" name="FOURORBIT">     0</i>
   <i name="AEXX">      0.00000000</i>
   <i name="HFALPHA">      0.00000000</i>
   <i name="MCALPHA">      0.00000000</i>
   <i name="ALDAX">      1.00000000</i>
   <i name="AGGAX">      1.00000000</i>
   <i name="ALDAC">      1.00000000</i>
   <i name="AGGAC">      1.00000000</i>
   <i type="int" name="NKREDX">     1</i>
   <i type="int" name="NKREDY">     1</i>
   <i type="int" name="NKREDZ">     1</i>
   <i type="logical" name="SHIFTRED"> F  </i>
   <i type="logical" name="ODDONLY"> F  </i>
   <i type="logical" name="EVENONLY"> F  </i>
   <i type="int" name="LMAXFOCK">     0</i>
   <i type="int" name="NMAXFOCKAE">     0</i>
   <i type="logical" name="LFOCKAEDFT"> F  </i>
   <i name="HFSCREEN">      0.00000000</i>
   <i name="HFSCREENC">      0.00000000</i>
   <i type="int" name="NBANDSGWLOW">     0</i>
  </separator>
  <separator name="vdW DFT" >
   <i type="logical" name="LUSE_VDW"> F  </i>
   <i name="Zab_VDW">     -0.84910000</i>
   <i name="PARAM1">      0.12340000</i>
   <i name="PARAM2">      1.00000000</i>
   <i name="PARAM3">      0.00000000</i>
  </separator>
  <separator name="model GW" >
   <i type="int" name="MODEL_GW">     0</i>
   <i name="MODEL_EPS0">     11.95007673</i>
   <i name="MODEL_ALPHA">      1.00000000</i>
  </separator>
  <separator name="linear response parameters" >
   <i type="logical" name="LEPSILON"> F  </i>
   <i type="logical" name="LRPA"> F  </i>
   <i type="logical" name="LNABLA"> F  </i>
   <i type="logical" name="LVEL"> F  </i>
   <i name="CSHIFT">      0.10000000</i>
   <i name="OMEGAMAX">     -1.00000000</i>
   <i name="DEG_THRESHOLD">      0.00200000</i>
   <i name="RTIME">     -0.10000000</i>
   <i name="WPLASMAI">      0.00000000</i>
   <v name="DFIELD">      0.00000000      0.00000000      0.00000000</v>
   <v name="WPLASMA">      0.00000000      0.00000000      0.00000000      0.00000000      0.00000000      0.00000000      0.00000000      0.00000000      0.00000000</v>
  </separator>
  <separator name="orbital magnetization" >
   <i type="logical" name="NUCIND"> F  </i>
   <v name="MAGPOS">      0.00000000      0.00000000      0.00000000</v>
   <i type="logical" name="LNICSALL"> T  </i>
   <i type="logical" name="ORBITALMAG"> F  </i>
   <i type="logical" name="LMAGBLOCH"> F  </i>
   <i type="logical" name="LCHIMAG"> F  </i>
   <i type="logical" name="LGAUGE"> T  </i>
   <i type="int" name="MAGATOM">     0</i>
   <v name="MAGDIPOL">      0.00000000      0.00000000      0.00000000</v>
   <v name="AVECCONST">      0.00000000      0.00000000      0.00000000</v>
  </separator>
  <separator name="response functions" >
   <i type="logical" name="LFINITE_TEMPERATURE"> F  </i>
   <i type="logical" name="LADDER"> F  </i>
   <i type="logical" name="LRPAFORCE"> F  </i>
   <i type="logical" name="LFXC"> F  </i>
   <i type="logical" name="LHARTREE"> T  </i>
   <i type="int" name="IBSE">     0</i>
   <v type="int" name="KPOINT">    -1     0     0     0</v>
   <i type="logical" name="LTCTC"> F  </i>
   <i type="logical" name="LTCTE"> F  </i>
   <i type="logical" name="LTETE"> F  </i>
   <i type="logical" name="LTRIPLET"> F  </i>
   <i type="logical" name="LFXCEPS"> F  </i>
   <i type="logical" name="LFXHEG"> F  </i>
   <i type="int" name="NATURALO">     2</i>
   <i type="logical" name="LHOLEGF"> F  </i>
   <i type="logical" name="L2ORDER"> F  </i>
   <i type="logical" name="LDMP1"> F  </i>
   <i type="logical" name="LMP2LT"> F  </i>
   <i type="logical" name="LSMP2LT"> F  </i>
   <i type="logical" name="LGWLF"> F  </i>
   <i name="ENCUTGW">     -2.00000000</i>
   <i name="ENCUTGWSOFT">     -2.00000000</i>
   <i name="ENCUTLF">     -1.00000000</i>
   <i type="logical" name="LESF_SPLINES"> F  </i>
   <i type="int" name="LMAXMP2">    -1</i>
   <i name="SCISSOR">      0.00000000</i>
   <i type="int" name="NOMEGA">     0</i>
   <i type="int" name="NOMEGAR">     0</i>
   <i type="int" name="NBANDSGW">    -1</i>
   <i type="int" name="NBANDSO">    -1</i>
   <i type="int" name="NBANDSV">    -1</i>
   <i type="int" name="NELMGW">     1</i>
   <i type="int" name="NELMHF">     1</i>
   <i type="int" name="DIM">     3</i>
   <i type="int" name="IESPILON">     4</i>
   <i type="int" name="ANTIRES">     0</i>
   <i name="OMEGAMAX">    -30.00000000</i>
   <i name="OMEGAMIN">    -30.00000000</i>
   <i name="OMEGATL">   -200.00000000</i>
   <i type="int" name="OMEGAGRID">     0</i>
   <i name="CSHIFT">     -0.10000000</i>
   <i type="logical" name="LSELFENERGY"> F  </i>
   <i type="logical" name="LSPECTRAL"> F  </i>
   <i type="logical" name="LSPECTRALGW"> F  </i>
   <i type="logical" name="LSINGLES"> F  </i>
   <i type="logical" name="LFERMIGW"> F  </i>
   <i type="logical" name="ODDONLYGW"> F  </i>
   <i type="logical" name="EVENONLYGW"> F  </i>
   <i type="int" name="NKREDLFX">     1</i>
   <i type="int" name="NKREDLFY">     1</i>
   <i type="int" name="NKREDLFZ">     1</i>
   <i type="int" name="MAXMEM">  2800</i>
   <i type="int" name="TELESCOPE">     0</i>
   <i type="int" name="NTAUPAR">    -1</i>
   <i type="int" name="NOMEGAPAR">    -1</i>
   <i name="DAMP_NEWTON">      0.80000001</i>
   <i name="LAMBDA">      1.00000000</i>
  </separator>
  <separator name="External order field" >
   <i name="OFIELD_KAPPA">      0.00000000</i>
   <v name="OFIELD_K">      0.00000000      0.00000000      0.00000000</v>
   <i name="OFIELD_Q6_NEAR">      0.00000000</i>
   <i name="OFIELD_Q6_FAR">      0.00000000</i>
   <i name="OFIELD_A">      0.00000000</i>
  </separator>
  <separator name="optional k-points parameters" >
   <i type="int" name="KPOINTS_OPT_MODE">     1</i>
   <i type="logical" name="LKPOINTS_OPT"> F  </i>
  </separator>
 </parameters>
 <atominfo>
  <atoms>      34 </atoms>
  <types>       2 </types>
  <array name="atoms" >
   <dimension dim="1">ion</dimension>
   <field type="string">element</field>
   <field type="int">atomtype</field>
   <set>
    <rc><c>Cu</c><c>   1</c></rc>
    <rc><c>Cu</c><c>   1</c></rc>
    <rc><c>Cu</c><c>   1</c></rc>
    <rc><c>Cu</c><c>   1</c></rc>
    <rc><c>Cu</c><c>   1</c></rc>
    <rc><c>Cu</c><c>   1</c></rc>
    <rc><c>Cu</c><c>   1</c></rc>
    <rc><c>Cu</c><c>   1</c></rc>
    <rc><c>Cu</c><c>   1</c></rc>
    <rc><c>Cu</c><c>   1</c></rc>
    <rc><c>Cu</c><c>   1</c></rc>
    <rc><c>Cu</c><c>   1</c></rc>
    <rc><c>Cu</c><c>   1</c></rc>
    <rc><c>Cu</c><c>   1</c></rc>
    <rc><c>Cu</c><c>   1</c></rc>
    <rc><c>Cu</c><c>   1</c></rc>
    <rc><c>Cu</c><c>   1</c></rc>
    <rc><c>Cu</c><c>   1</c></rc>
    <rc><c>Cu</c><c>   1</c></rc>
    <rc><c>Cu</c><c>   1</c></rc>
    <rc><c>Cu</c><c>   1</c></rc>
    <rc><c>Cu</c><c>   1</c></rc>
    <rc><c>Cu</c><c>   1</c></rc>
    <rc><c>Cu</c><c>   1</c></rc>
    <rc><c>Cu</c><c>   1</c></rc>
    <rc><c>Cu</c><c>   1</c></rc>
    <rc><c>Cu</c><c>   1</c></rc>
    <rc><c>Cu</c><c>   1</c></rc>
    <rc><c>Cu</c><c>   1</c></rc>
    <rc><c>Cu</c><c>   1</c></rc>
    <rc><c>Cu</c><c>   1</c></rc>
    <rc><c>Cu</c><c>   1</c></rc>
    <rc><c>H </c><c>   2</c></rc>
    <rc><c>H </c><c>   2</c></rc>
   </set>
  </array>
  <array name="atomtypes" >
   <dimension dim="1">type</dimension>
   <field type="int">atomspertype</field>
   <field type="string">element</field>
   <field>mass</field>
   <field>valence</field>
   <field type="string">pseudopotential</field>
   <set>
    <rc><c>  32</c><c>Cu</c><c>     63.54600000</c><c>     11.00000000</c><c>  PAW_PBE Cu 22Jun2005                  </c></rc>
    <rc><c>   2</c><c>H </c><c>      1.00000000</c><c>      1.00000000</c><c>  PAW_PBE H 15Jun2001                   </c></rc>
   </set>
  </array>
 </atominfo>
 <structure name="initialpos" >
  <crystal>
   <varray name="basis" >
    <v>       5.13359547       0.00000000       0.00000000 </v>
    <v>       2.56679773       4.44582409       0.00000000 </v>
    <v>       0.00000000       0.00000000      29.67047119 </v>
   </varray>
   <i name="volume">    677.17101477 </i>
   <varray name="rec_basis" >
    <v>       0.19479525      -0.11246509       0.00000000 </v>
    <v>       0.00000000       0.22493018       0.00000000 </v>
    <v>       0.00000000       0.00000000       0.03370354 </v>
   </varray>
  </crystal>
  <varray name="positions" >
   <v>       0.00000000       0.00000000       0.00000000 </v>
   <v>       1.00000000       0.50000000       0.00000000 </v>
   <v>       0.50000000       0.00000000       0.00000000 </v>
   <v>       0.50000000       0.50000000       0.00000000 </v>
   <v>       0.16666667       0.16666667       0.07063526 </v>
   <v>       0.16666667       0.66666667       0.07063526 </v>
   <v>       0.66666667       0.16666667       0.07063526 </v>
   <v>       0.66666667       0.66666667       0.07063526 </v>
   <v>       0.33333333       0.33333333       0.13847021 </v>
   <v>       0.33333333       0.83333333       0.13847021 </v>
   <v>       0.83333333       0.33333333       0.13847021 </v>
   <v>       0.83333333       0.83333333       0.13847021 </v>
   <v>       0.00000000       0.00000000       0.20667428 </v>
   <v>       1.00000000       0.50000000       0.20667428 </v>
   <v>       0.50000000       0.00000000       0.20667428 </v>
   <v>       0.50000000       0.50000000       0.20667428 </v>
   <v>       0.16666667       0.16666667       0.27488859 </v>
   <v>       0.16666667       0.66666667       0.27488859 </v>
   <v>       0.66666667       0.16666667       0.27488859 </v>
   <v>       0.66666667       0.66666667       0.27488859 </v>
   <v>       0.33333333       0.33333333       0.34319917 </v>
   <v>       0.33333333       0.83333333       0.34319917 </v>
   <v>       0.83333333       0.33333333       0.34319917 </v>
   <v>       0.83333333       0.83333333       0.34319917 </v>
   <v>       0.00000000       0.00000000       0.41105828 </v>
   <v>       1.00000000       0.50000000       0.41105828 </v>
   <v>       0.50000000       0.00000000       0.41105828 </v>
   <v>       0.50000000       0.50000000       0.41105828 </v>
   <v>       0.16666667       0.16666667       0.48054462 </v>
   <v>       0.16666667       0.66666667       0.48054462 </v>
   <v>       0.66666667       0.16666667       0.48054462 </v>
   <v>       0.66666667       0.66666667       0.48054462 </v>
   <v>       0.91666667       0.66666667       0.53425930 </v>
   <v>       0.83276771       0.83446458       0.53425930 </v>
  </varray>
 </structure>
 <calculation>
  <scstep>
   <time name="dav">    6.10    6.15</time>
   <time name="total">    6.19    6.24</time>
   <energy>
    <i name="alphaZ">   1114.72537883 </i>
    <i name="ewald"> 216567.79209324 </i>
    <i name="hartreedc">-260597.36737796 </i>
    <i name="XCdc">   1472.17235227 </i>
    <i name="pawpsdc">  39302.70853331 </i>
    <i name="pawaedc"> -42689.07521165 </i>
    <i name="eentropy">     -0.00167403 </i>
    <i name="bandstr">   3743.83144662 </i>
    <i name="atom">  44535.60175172 </i>
    <i name="e_fr_energy">   3450.38729234 </i>
    <i name="e_wo_entrp">   3450.38896637 </i>
    <i name="e_0_energy">   3450.38785035 </i>
   </energy>
  </scstep>
  <scstep>
   <time name="dav">    6.01    6.06</time>
   <time name="total">    6.02    6.07</time>
   <energy>
    <i name="e_fr_energy">    486.77649859 </i>
    <i name="e_wo_entrp">    486.77078442 </i>
    <i name="e_0_energy">    486.77459387 </i>
   </energy>
  </scstep>
  <scstep>
   <time name="dav">    6.04    6.08</time>
   <time name="total">    6.04    6.09</time>
   <energy>
    <i name="e_fr_energy">    -92.80574253 </i>
    <i name="e_wo_entrp">    -92.80664414 </i>
    <i name="e_0_energy">    -92.80604307 </i>
   </energy>
  </scstep>
  <scstep>
   <time name="dav">    6.51    6.56</time>
   <time name="total">    6.51    6.56</time>
   <energy>
    <i name="e_fr_energy">   -138.29794458 </i>
    <i name="e_wo_entrp">   -138.32528070 </i>
    <i name="e_0_energy">   -138.30705662 </i>
   </energy>
  </scstep>
  <scstep>
   <time name="dav">    6.50    6.56</time>
   <time name="total">    6.90    6.95</time>
   <energy>
    <i name="e_fr_energy">   -139.40939794 </i>
    <i name="e_wo_entrp">   -139.43877330 </i>
    <i name="e_0_energy">   -139.41918973 </i>
   </energy>
  </scstep>
  <scstep>
   <time name="dav">    6.63    6.69</time>
   <time name="total">    7.10    7.16</time>
   <energy>
    <i name="e_fr_energy">   -114.98949567 </i>
    <i name="e_wo_entrp">   -114.95100625 </i>
    <i name="e_0_energy">   -114.97666586 </i>
   </energy>
  </scstep>
  <scstep>
   <time name="dav">    6.74    6.80</time>
   <time name="total">    7.19    7.25</time>
   <energy>
    <i name="e_fr_energy">   -103.18669976 </i>
    <i name="e_wo_entrp">   -103.16781071 </i>
    <i name="e_0_energy">   -103.18040341 </i>
   </energy>
  </scstep>
  <scstep>
   <time name="dav">    7.42    7.48</time>
   <time name="total">    7.88    7.94</time>
   <energy>
    <i name="e_fr_energy">   -107.59918419 </i>
    <i name="e_wo_entrp">   -107.66896580 </i>
    <i name="e_0_energy">   -107.62244473 </i>
   </energy>
  </scstep>
  <scstep>
   <time name="dav">    7.97    8.04</time>
   <time name="total">    8.43    8.49</time>
   <energy>
    <i name="e_fr_energy">    -98.56508852 </i>
    <i name="e_wo_entrp">    -98.51395632 </i>
    <i name="e_0_energy">    -98.54804446 </i>
   </energy>
  </scstep>
  <scstep>
   <time name="dav">    7.36    7.43</time>
   <time name="total">    7.81    7.88</time>
   <energy>
    <i name="e_fr_energy">   -100.47531615 </i>
    <i name="e_wo_entrp">   -100.48986734 </i>
    <i name="e_0_energy">   -100.48016655 </i>
   </energy>
  </scstep>
  <scstep>
   <time name="dav">    6.92    6.97</time>
   <time name="total">    7.37    7.43</time>
   <energy>
    <i name="e_fr_energy">   -103.38085270 </i>
    <i name="e_wo_entrp">   -103.43183045 </i>
    <i name="e_0_energy">   -103.39784528 </i>
   </energy>
  </scstep>
  <scstep>
   <time name="dav">    6.89    6.95</time>
   <time name="total">    7.35    7.41</time>
   <energy>
    <i name="e_fr_energy">   -101.77859262 </i>
    <i name="e_wo_entrp">   -101.79638000 </i>
    <i name="e_0_energy">   -101.78452174 </i>
   </energy>
  </scstep>
  <scstep>
   <time name="dav">    8.71    8.79</time>
   <time name="total">    9.16    9.24</time>
   <energy>
    <i name="e_fr_energy">   -103.28772408 </i>
    <i name="e_wo_entrp">   -103.32497914 </i>
    <i name="e_0_energy">   -103.30014243 </i>
   </energy>
  </scstep>
  <scstep>
   <time name="dav">    8.41    8.49</time>
   <time name="total">    8.86    8.95</time>
   <energy>
    <i name="e_fr_energy">   -105.67008882 </i>
    <i name="e_wo_entrp">   -105.67648127 </i>
    <i name="e_0_energy">   -105.67221964 </i>
   </energy>
  </scstep>
  <scstep>
   <time name="dav">    7.44    7.51</time>
   <time name="total">    7.89    7.96</time>
   <energy>
    <i name="e_fr_energy">   -110.15645435 </i>
    <i name="e_wo_entrp">   -110.15119543 </i>
    <i name="e_0_energy">   -110.15470138 </i>
   </energy>
  </scstep>
  <scstep>
   <time name="dav">    7.34    7.41</time>
   <time name="total">    7.79    7.86</time>
   <energy>
    <i name="e_fr_energy">   -112.12694930 </i>
    <i name="e_wo_entrp">   -112.11753725 </i>
    <i name="e_0_energy">   -112.12381195 </i>
   </energy>
  </scstep>
  <scstep>
   <time name="dav">    7.19    7.26</time>
   <time name="total">    7.65    7.72</time>
   <energy>
    <i name="e_fr_energy">   -113.56630197 </i>
    <i name="e_wo_entrp">   -113.54614035 </i>
    <i name="e_0_energy">   -113.55958143 </i>
   </energy>
  </scstep>
  <scstep>
   <time name="dav">    6.93    6.98</time>
   <time name="total">    7.39    7.45</time>
   <energy>
    <i name="e_fr_energy">   -114.57317802 </i>
    <i name="e_wo_entrp">   -114.55550744 </i>
    <i name="e_0_energy">   -114.56728783 </i>
   </energy>
  </scstep>
  <scstep>
   <time name="dav">    6.74    6.79</time>
   <time name="total">    7.20    7.26</time>
   <energy>
    <i name="e_fr_energy">   -115.75350200 </i>
    <i name="e_wo_entrp">   -115.73707051 </i>
    <i name="e_0_energy">   -115.74802484 </i>
   </energy>
  </scstep>
  <scstep>
   <time name="dav">    6.95    7.01</time>
   <time name="total">    7.40    7.46</time>
   <energy>
    <i name="e_fr_energy">   -116.53826815 </i>
    <i name="e_wo_entrp">   -116.52447937 </i>
    <i name="e_0_energy">   -116.53367189 </i>
   </energy>
  </scstep>
  <scstep>
   <time name="dav">    7.27    7.33</time>
   <time name="total">    7.73    7.79</time>
   <energy>
    <i name="e_fr_energy">   -117.25616541 </i>
    <i name="e_wo_entrp">   -117.24145593 </i>
    <i name="e_0_energy">   -117.25126225 </i>
   </energy>
  </scstep>
  <scstep>
   <time name="dav">    7.45    7.51</time>
   <time name="total">    7.89    7.96</time>
   <energy>
    <i name="e_fr_energy">   -117.75920742 </i>
    <i name="e_wo_entrp">   -117.74934416 </i>
    <i name="e_0_energy">   -117.75591966 </i>
   </energy>
  </scstep>
  <scstep>
   <time name="dav">    7.11    7.17</time>
   <time name="total">    7.56    7.62</time>
   <energy>
    <i name="e_fr_energy">   -118.34727196 </i>
    <i name="e_wo_entrp">   -118.34220173 </i>
    <i name="e_0_energy">   -118.34558188 </i>
   </energy>
  </scstep>
  <scstep>
   <time name="dav">    7.62    7.68</time>
   <time name="total">    8.07    8.13</time>
   <energy>
    <i name="e_fr_energy">   -119.00222608 </i>
    <i name="e_wo_entrp">   -118.99834854 </i>
    <i name="e_0_energy">   -119.00093356 </i>
   </energy>
  </scstep>
  <scstep>
   <time name="dav">    7.16    7.22</time>
   <time name="total">    7.62    7.68</time>
   <energy>
    <i name="e_fr_energy">   -119.89632757 </i>
    <i name="e_wo_entrp">   -119.88535816 </i>
    <i name="e_0_energy">   -119.89267110 </i>
   </energy>
  </scstep>
  <scstep>
   <time name="dav">    6.48    6.54</time>
   <time name="total">    6.94    7.00</time>
   <energy>
    <i name="e_fr_energy">   -120.41535988 </i>
    <i name="e_wo_entrp">   -120.40864465 </i>
    <i name="e_0_energy">   -120.41312147 </i>
   </energy>
  </scstep>
  <scstep>
   <time name="dav">    6.71    6.76</time>
   <time name="total">    7.16    7.22</time>
   <energy>
    <i name="e_fr_energy">   -120.59399954 </i>
    <i name="e_wo_entrp">   -120.58759816 </i>
    <i name="e_0_energy">   -120.59186574 </i>
   </energy>
  </scstep>
  <scstep>
   <time name="dav">    6.32    6.37</time>
   <time name="total">    6.78    6.84</time>
   <energy>
    <i name="e_fr_energy">   -120.64454905 </i>
    <i name="e_wo_entrp">   -120.63855253 </i>
    <i name="e_0_energy">   -120.64255021 </i>
   </energy>
  </scstep>
  <scstep>
   <time name="dav">    6.39    6.44</time>
   <time name="total">    6.84    6.90</time>
   <energy>
    <i name="e_fr_energy">   -120.65095305 </i>
    <i name="e_wo_entrp">   -120.64578482 </i>
    <i name="e_0_energy">   -120.64923031 </i>
   </energy>
  </scstep>
  <scstep>
   <time name="dav">    4.96    5.00</time>
   <time name="total">    5.41    5.46</time>
   <energy>
    <i name="e_fr_energy">   -120.65455976 </i>
    <i name="e_wo_entrp">   -120.64931677 </i>
    <i name="e_0_energy">   -120.65281210 </i>
   </energy>
  </scstep>
  <scstep>
   <time name="dav">    5.58    5.63</time>
   <time name="total">    6.04    6.09</time>
   <energy>
    <i name="e_fr_energy">   -120.65872505 </i>
    <i name="e_wo_entrp">   -120.65298613 </i>
    <i name="e_0_energy">   -120.65681208 </i>
   </energy>
  </scstep>
  <scstep>
   <time name="dav">    4.52    4.56</time>
   <time name="total">    4.98    5.03</time>
   <energy>
    <i name="e_fr_energy">   -120.65837116 </i>
    <i name="e_wo_entrp">   -120.65279282 </i>
    <i name="e_0_energy">   -120.65651172 </i>
   </energy>
  </scstep>
  <scstep>
   <time name="dav">    4.48    4.52</time>
   <time name="total">    4.55    4.59</time>
   <energy>
    <i name="alphaZ">   1114.72537883 </i>
    <i name="ewald"> 216567.79209324 </i>
    <i name="hartreedc">-260100.08466023 </i>
    <i name="XCdc">   1433.93387891 </i>
    <i name="pawpsdc">  42132.71589060 </i>
    <i name="pawaedc"> -45584.65657648 </i>
    <i name="eentropy">     -0.00566409 </i>
    <i name="bandstr">   -220.68040882 </i>
    <i name="atom">  44535.60175172 </i>
    <i name="e_fr_energy">   -120.65831631 </i>
    <i name="e_wo_entrp">   -120.65265222 </i>
    <i name="e_0_energy">   -120.65642828 </i>
   </energy>
  </scstep>
  <structure>
   <crystal>
    <varray name="basis" >
     <v>       5.13359547       0.00000000       0.00000000 </v>
     <v>       2.56679773       4.44582409       0.00000000 </v>
     <v>       0.00000000       0.00000000      29.67047119 </v>
    </varray>
    <i name="volume">    677.17101477 </i>
    <varray name="rec_basis" >
     <v>       0.19479525      -0.11246509       0.00000000 </v>
     <v>       0.00000000       0.22493018       0.00000000 </v>
     <v>       0.00000000       0.00000000       0.03370354 </v>
    </varray>
   </crystal>
   <varray name="positions" >
    <v>       0.00000000       0.00000000       0.00000000 </v>
    <v>       1.00000000       0.50000000       0.00000000 </v>
    <v>       0.50000000       0.00000000       0.00000000 </v>
    <v>       0.50000000       0.50000000       0.00000000 </v>
    <v>       0.16666667       0.16666667       0.07063526 </v>
    <v>       0.16666667       0.66666667       0.07063526 </v>
    <v>       0.66666667       0.16666667       0.07063526 </v>
    <v>       0.66666667       0.66666667       0.07063526 </v>
    <v>       0.33333333       0.33333333       0.13847021 </v>
    <v>       0.33333333       0.83333333       0.13847021 </v>
    <v>       0.83333333       0.33333333       0.13847021 </v>
    <v>       0.83333333       0.83333333       0.13847021 </v>
    <v>       0.00000000       0.00000000       0.20667428 </v>
    <v>       1.00000000       0.50000000       0.20667428 </v>
    <v>       0.50000000       0.00000000       0.20667428 </v>
    <v>       0.50000000       0.50000000       0.20667428 </v>
    <v>       0.16666667       0.16666667       0.27488859 </v>
    <v>       0.16666667       0.66666667       0.27488859 </v>
    <v>       0.66666667       0.16666667       0.27488859 </v>
    <v>       0.66666667       0.66666667       0.27488859 </v>
    <v>       0.33333333       0.33333333       0.34319917 </v>
    <v>       0.33333333       0.83333333       0.34319917 </v>
    <v>       0.83333333       0.33333333       0.34319917 </v>
    <v>       0.83333333       0.83333333       0.34319917 </v>
    <v>       0.00000000       0.00000000       0.41105828 </v>
    <v>       1.00000000       0.50000000       0.41105828 </v>
    <v>       0.50000000       0.00000000       0.41105828 </v>
    <v>       0.50000000       0.50000000       0.41105828 </v>
    <v>       0.16666667       0.16666667       0.48054462 </v>
    <v>       0.16666667       0.66666667       0.48054462 </v>
    <v>       0.66666667       0.16666667       0.48054462 </v>
    <v>       0.66666667       0.66666667       0.48054462 </v>
    <v>       0.91666667       0.66666667       0.53425930 </v>
    <v>       0.83276771       0.83446458       0.53425930 </v>
   </varray>
  </structure>
  <varray name="forces" >
   <v>       0.02677767       0.01097915       0.14794681 </v>
   <v>       0.00000000      -0.02223875       0.15855428 </v>
   <v>      -0.02677767       0.01097915       0.14794681 </v>
   <v>       0.00000000       0.00421540       0.13394100 </v>
   <v>       0.00000000       0.00840637      -0.13101776 </v>
   <v>      -0.00411807      -0.00550898      -0.12378697 </v>
   <v>       0.00000000       0.00247890      -0.14188725 </v>
   <v>       0.00411807      -0.00550898      -0.12378697 </v>
   <v>       0.00791564      -0.00835207      -0.00511330 </v>
   <v>       0.00000000      -0.00000737      -0.01511449 </v>
   <v>      -0.00791564      -0.00835207      -0.00511330 </v>
   <v>       0.00000000       0.01567829      -0.03231669 </v>
   <v>       0.01790683       0.01074131       0.01877956 </v>
   <v>       0.00000000      -0.01648197       0.01412004 </v>
   <v>      -0.01790683       0.01074131       0.01877956 </v>
   <v>       0.00000000      -0.00904330      -0.03281795 </v>
   <v>       0.00000000      -0.00716630      -0.02556729 </v>
   <v>       0.04904494      -0.02323882       0.02882541 </v>
   <v>       0.00000000       0.04958672       0.00058620 </v>
   <v>      -0.04904494      -0.02323882       0.02882541 </v>
   <v>       0.01377722      -0.01445318       0.02322257 </v>
   <v>       0.00000000      -0.00303571       0.00693027 </v>
   <v>      -0.01377722      -0.01445318       0.02322257 </v>
   <v>       0.00000000       0.04128610      -0.05389226 </v>
   <v>      -0.02195500      -0.02484999       0.08205771 </v>
   <v>      -0.00000000       0.06104726      -0.00489048 </v>
   <v>       0.02195500      -0.02484999       0.08205771 </v>
   <v>       0.00000000       0.01560958       0.18695415 </v>
   <v>      -0.00000000      -0.12097095      -0.17760002 </v>
   <v>       0.29347349      -0.08525207      -0.20083009 </v>
   <v>       0.00000000       0.41150992      -0.32956717 </v>
   <v>      -0.29347349      -0.08525207      -0.20083009 </v>
   <v>      -0.00000000      -1.77952822       0.30696692 </v>
   <v>       0.00000000       1.62852331       0.19441511 </v>
  </varray>
  <varray name="stress" >
   <v>     -33.64783968       0.00000000       0.00000000 </v>
   <v>       0.00000000     -28.76315736      -0.75546324 </v>
   <v>       0.00000000      -0.75545781      -9.76703273 </v>
  </varray>
  <energy>
   <i name="e_fr_energy">   -134.68231387 </i>
   <i name="e_wo_entrp">   -134.67664978 </i>
   <i name="e_0_energy">   -134.68042584 </i>
  </energy>
  <time name="totalsc">  247.25  249.37</time>
 </calculation>
 <calculation>
  <scstep>
   <time name="dav">    6.15    6.20</time>
   <time name="total">    6.62    6.67</time>
   <energy>
    <i name="alphaZ">   1114.72537883 </i>
    <i name="ewald"> 216793.76494783 </i>
    <i name="hartreedc">-260326.66394238 </i>
    <i name="XCdc">   1433.85569310 </i>
    <i name="pawpsdc">  42132.66967376 </i>
    <i name="pawaedc"> -45584.64691960 </i>
    <i name="eentropy">     -0.01051822 </i>
    <i name="bandstr">   -219.93651652 </i>
    <i name="atom">  44535.60175172 </i>
    <i name="e_fr_energy">   -120.64045149 </i>
    <i name="e_wo_entrp">   -120.62993327 </i>
    <i name="e_0_energy">   -120.63694541 </i>
   </energy>
  </scstep>
  <scstep>
   <time name="dav">    7.84    7.91</time>
   <time name="total">    8.31    8.38</time>
   <energy>
    <i name="e_fr_energy">   -120.65982111 </i>
    <i name="e_wo_entrp">   -120.65066557 </i>
    <i name="e_0_energy">   -120.65676927 </i>
   </energy>
  </scstep>
  <scstep>
   <time name="dav">    6.99    7.05</time>
   <time name="total">    7.46    7.52</time>
   <energy>
    <i name="e_fr_energy">   -120.68786856 </i>
    <i name="e_wo_entrp">   -120.68261953 </i>
    <i name="e_0_energy">   -120.68611888 </i>
   </energy>
  </scstep>
  <scstep>
   <time name="dav">    7.36    7.42</time>
   <time name="total">    7.83    7.89</time>
   <energy>
    <i name="e_fr_energy">   -120.68893074 </i>
    <i name="e_wo_entrp">   -120.68089401 </i>
    <i name="e_0_energy">   -120.68625183 </i>
   </energy>
  </scstep>
  <scstep>
   <time name="dav">    7.72    7.78</time>
   <time name="total">    8.19    8.25</time>
   <energy>
    <i name="e_fr_energy">   -120.68553646 </i>
    <i name="e_wo_entrp">   -120.67669548 </i>
    <i name="e_0_energy">   -120.68258947 </i>
   </energy>
  </scstep>
  <scstep>
   <time name="dav">    8.25    8.33</time>
   <time name="total">    8.73    8.82</time>
   <energy>
    <i name="e_fr_energy">   -120.65496730 </i>
    <i name="e_wo_entrp">   -120.64717216 </i>
    <i name="e_0_energy">   -120.65236892 </i>
   </energy>
  </scstep>
  <scstep>
   <time name="dav">    9.03    9.11</time>
   <time name="total">    9.49    9.58</time>
   <energy>
    <i name="e_fr_energy">   -120.65469297 </i>
    <i name="e_wo_entrp">   -120.64554485 </i>
    <i name="e_0_energy">   -120.65164359 </i>
   </energy>
  </scstep>
  <scstep>
   <time name="dav">    6.50    6.56</time>
   <time name="total">    6.96    7.03</time>
   <energy>
    <i name="e_fr_energy">   -120.65477811 </i>
    <i name="e_wo_entrp">   -120.64571824 </i>
    <i name="e_0_energy">   -120.65175815 </i>
   </energy>
  </scstep>
  <scstep>
   <time name="dav">    6.12    6.18</time>
   <time name="total">    6.20    6.26</time>
   <energy>
    <i name="alphaZ">   1114.72537883 </i>
    <i name="ewald"> 216793.76494783 </i>
    <i name="hartreedc">-260318.40720284 </i>
    <i name="XCdc">   1433.64955471 </i>
    <i name="pawpsdc">  42131.69117144 </i>
    <i name="pawaedc"> -45583.75962360 </i>
    <i name="eentropy">     -0.00892147 </i>
    <i name="bandstr">   -227.91195573 </i>
    <i name="atom">  44535.60175172 </i>
    <i name="e_fr_energy">   -120.65489911 </i>
    <i name="e_wo_entrp">   -120.64597764 </i>
    <i name="e_0_energy">   -120.65192529 </i>
   </energy>
  </scstep>
  <structure>
   <crystal>
    <varray name="basis" >
     <v>       5.13359547       0.00000000       0.00000000 </v>
     <v>       2.56679773       4.44582409       0.00000000 </v>
     <v>       0.00000000       0.00000000      29.67047119 </v>
    </varray>
    <i name="volume">    677.17101477 </i>
    <varray name="rec_basis" >
     <v>       0.19479525      -0.11246509       0.00000000 </v>
     <v>       0.00000000       0.22493018       0.00000000 </v>
     <v>       0.00000000       0.00000000       0.03370354 </v>
    </varray>
   </crystal>
   <varray name="positions" >
    <v>       0.00019207       0.00011914       0.00024055 </v>
    <v>       0.00012066       0.49975868       0.00025780 </v>
    <v>       0.49968879       0.00011914       0.00024055 </v>
    <v>       0.49997713       0.50004574       0.00021778 </v>
    <v>       0.16662106       0.16675789       0.07042224 </v>
    <v>       0.16665786       0.66660689       0.07043399 </v>
    <v>       0.66665322       0.16669357       0.07040456 </v>
    <v>       0.66673526       0.66660689       0.07043399 </v>
    <v>       0.33345304       0.33324270       0.13846190 </v>
    <v>       0.33333337       0.83333325       0.13844564 </v>
    <v>       0.83330426       0.33324270       0.13846190 </v>
    <v>       0.83324827       0.83350346       0.13841767 </v>
    <v>       0.00011000       0.00011656       0.20670481 </v>
    <v>       0.00008942       0.49982115       0.20669724 </v>
    <v>       0.49977344       0.00011656       0.20670481 </v>
    <v>       0.50004907       0.49990187       0.20662092 </v>
    <v>       0.16670555       0.16658890       0.27484702 </v>
    <v>       0.16725365       0.66641450       0.27493546 </v>
    <v>       0.66639763       0.16720474       0.27488954 </v>
    <v>       0.66633185       0.66641450       0.27493546 </v>
    <v>       0.33354122       0.33317650       0.34323693 </v>
    <v>       0.33334980       0.83330039       0.34321044 </v>
    <v>       0.83328228       0.33317650       0.34323693 </v>
    <v>       0.83310933       0.83378134       0.34311155 </v>
    <v>      -0.00007149      -0.00026965       0.41119170 </v>
    <v>       0.99966878       0.50066244       0.41105033 </v>
    <v>       0.50034115      -0.00026965       0.41119170 </v>
    <v>       0.49991531       0.50016938       0.41136226 </v>
    <v>       0.16732301       0.16535398       0.48025585 </v>
    <v>       0.16988711       0.66574158       0.48021808 </v>
    <v>       0.66443397       0.17113205       0.48000876 </v>
    <v>       0.66437131       0.66574158       0.48021808 </v>
    <v>       0.92632170       0.64735660       0.53475842 </v>
    <v>       0.82393197       0.85213606       0.53457541 </v>
   </varray>
  </structure>
  <varray name="forces" >
   <v>       0.01657939       0.00583598       0.09251226 </v>
   <v>       0.00000000      -0.01065598       0.10279130 </v>
   <v>      -0.01657939       0.00583598       0.09251226 </v>
   <v>      -0.00000000       0.00290937       0.07893880 </v>
   <v>       0.00000000       0.00702699      -0.05236968 </v>
   <v>      -0.00512215      -0.00365353      -0.05250293 </v>
   <v>      -0.00000000       0.00122865      -0.06796298 </v>
   <v>       0.00512215      -0.00365353      -0.05250293 </v>
   <v>       0.00216450      -0.00391247      -0.02998950 </v>
   <v>       0.00000000      -0.00001188      -0.03800459 </v>
   <v>      -0.00216450      -0.00391247      -0.02998950 </v>
   <v>       0.00000000       0.01024403      -0.03663500 </v>
   <v>       0.00348127       0.00007809       0.01365861 </v>
   <v>       0.00000000       0.00226885       0.00788037 </v>
   <v>      -0.00348127       0.00007809       0.01365861 </v>
   <v>       0.00000000      -0.00661026      -0.01959304 </v>
   <v>       0.00000000      -0.00177842       0.00032077 </v>
   <v>       0.02132235      -0.01660985       0.01628308 </v>
   <v>       0.00000000       0.02636107      -0.01011573 </v>
   <v>      -0.02132235      -0.01660985       0.01628308 </v>
   <v>       0.00937214      -0.00751567       0.03122030 </v>
   <v>       0.00000000      -0.01001289       0.01582089 </v>
   <v>      -0.00937214      -0.00751567       0.03122030 </v>
   <v>       0.00000000       0.03219034      -0.02522166 </v>
   <v>      -0.00637856      -0.01182054       0.02124258 </v>
   <v>       0.00000000       0.04844974      -0.03997282 </v>
   <v>       0.00637856      -0.01182054       0.02124258 </v>
   <v>       0.00000000       0.02214871       0.05738206 </v>
   <v>       0.00000000      -0.02993159      -0.10046562 </v>
   <v>       0.01348289      -0.01217089       0.01294592 </v>
   <v>       0.00000000       0.13452129      -0.09118218 </v>
   <v>      -0.01348289      -0.01217089       0.01294592 </v>
   <v>       0.00000000       0.78143401       0.06430437 </v>
   <v>       0.00000000      -0.91024427      -0.05665588 </v>
  </varray>
  <varray name="stress" >
   <v>     -32.06635670       0.00000000       0.00000000 </v>
   <v>       0.00000000     -31.64840213      -0.74220992 </v>
   <v>       0.00000000      -0.74220441      -9.12803207 </v>
  </varray>
  <energy>
   <i name="e_fr_energy">   -134.75412904 </i>
   <i name="e_wo_entrp">   -134.74520757 </i>
   <i name="e_0_energy">   -134.75115522 </i>
  </energy>
  <time name="totalsc">   81.36   82.10</time>
 </calculation>
 <calculation>
  <scstep>
   <time name="dav">    5.98    6.03</time>
   <time name="total">    6.44    6.49</time>
   <energy>
    <i name="alphaZ">   1114.72537883 </i>
    <i name="ewald"> 216710.63438564 </i>
    <i name="hartreedc">-260234.41430326 </i>
    <i name="XCdc">   1433.67248306 </i>
    <i name="pawpsdc">  42131.92279725 </i>
    <i name="pawaedc"> -45584.03184041 </i>
    <i name="eentropy">     -0.00743750 </i>
    <i name="bandstr">   -228.81286298 </i>
    <i name="atom">  44535.60175172 </i>
    <i name="e_fr_energy">   -120.70964763 </i>
    <i name="e_wo_entrp">   -120.70221014 </i>
    <i name="e_0_energy">   -120.70716847 </i>
   </energy>
  </scstep>
  <scstep>
   <time name="dav">    8.06    8.13</time>
   <time name="total">    8.51    8.58</time>
   <energy>
    <i name="e_fr_energy">   -120.71575377 </i>
    <i name="e_wo_entrp">   -120.70774566 </i>
    <i name="e_0_energy">   -120.71308440 </i>
   </energy>
  </scstep>
  <scstep>
   <time name="dav">    6.56    6.62</time>
   <time name="total">    7.02    7.08</time>
   <energy>
    <i name="e_fr_energy">   -120.71943040 </i>
    <i name="e_wo_entrp">   -120.71158812 </i>
    <i name="e_0_energy">   -120.71681630 </i>
   </energy>
  </scstep>
  <scstep>
   <time name="dav">    7.06    7.12</time>
   <time name="total">    7.52    7.58</time>
   <energy>
    <i name="e_fr_energy">   -120.72014141 </i>
    <i name="e_wo_entrp">   -120.71233657 </i>
    <i name="e_0_energy">   -120.71753980 </i>
   </energy>
  </scstep>
  <scstep>
   <time name="dav">    6.59    6.64</time>
   <time name="total">    7.05    7.10</time>
   <energy>
    <i name="e_fr_energy">   -120.71640219 </i>
    <i name="e_wo_entrp">   -120.70958154 </i>
    <i name="e_0_energy">   -120.71412864 </i>
   </energy>
  </scstep>
  <scstep>
   <time name="dav">    6.48    6.53</time>
   <time name="total">    6.94    6.99</time>
   <energy>
    <i name="e_fr_energy">   -120.71533495 </i>
    <i name="e_wo_entrp">   -120.70712843 </i>
    <i name="e_0_energy">   -120.71259944 </i>
   </energy>
  </scstep>
  <scstep>
   <time name="dav">    6.38    6.43</time>
   <time name="total">    6.45    6.51</time>
   <energy>
    <i name="alphaZ">   1114.72537883 </i>
    <i name="ewald"> 216710.63438564 </i>
    <i name="hartreedc">-260235.17931768 </i>
    <i name="XCdc">   1433.73759216 </i>
    <i name="pawpsdc">  42132.04190456 </i>
    <i name="pawaedc"> -45584.13428088 </i>
    <i name="eentropy">     -0.00794943 </i>
    <i name="bandstr">   -228.13467481 </i>
    <i name="atom">  44535.60175172 </i>
    <i name="e_fr_energy">   -120.71520989 </i>
    <i name="e_wo_entrp">   -120.70726046 </i>
    <i name="e_0_energy">   -120.71256008 </i>
   </energy>
  </scstep>
  <structure>
   <crystal>
    <varray name="basis" >
     <v>       5.13359547       0.00000000       0.00000000 </v>
     <v>       2.56679773       4.44582409       0.00000000 </v>
     <v>       0.00000000       0.00000000      29.67047119 </v>
    </varray>
    <i name="volume">    677.17101477 </i>
    <varray name="rec_basis" >
     <v>       0.19479525      -0.11246509       0.00000000 </v>
     <v>       0.00000000       0.22493018       0.00000000 </v>
     <v>       0.00000000       0.00000000       0.03370354 </v>
    </varray>
   </crystal>
   <varray name="positions" >
    <v>       0.00012175       0.00007552       0.00015249 </v>
    <v>       0.00007649       0.49984703       0.00016342 </v>
    <v>       0.49980272       0.00007552       0.00015249 </v>
    <v>       0.49998550       0.50002900       0.00013805 </v>
    <v>       0.16663775       0.16672449       0.07050023 </v>
    <v>       0.16666108       0.66662877       0.07050768 </v>
    <v>       0.66665814       0.16668372       0.07048902 </v>
    <v>       0.66671015       0.66662877       0.07050768 </v>
    <v>       0.33340921       0.33327588       0.13846494 </v>
    <v>       0.33333336       0.83333328       0.13845463 </v>
    <v>       0.83331490       0.33327588       0.13846494 </v>
    <v>       0.83327941       0.83344118       0.13843690 </v>
    <v>       0.00006973       0.00007389       0.20669363 </v>
    <v>       0.00005669       0.49988663       0.20668883 </v>
    <v>       0.49985639       0.00007389       0.20669363 </v>
    <v>       0.50003110       0.49993779       0.20664045 </v>
    <v>       0.16669131       0.16661737       0.27486224 </v>
    <v>       0.16703875       0.66650682       0.27491830 </v>
    <v>       0.66649612       0.16700775       0.27488919 </v>
    <v>       0.66645443       0.66650682       0.27491830 </v>
    <v>       0.33346511       0.33323392       0.34322311 </v>
    <v>       0.33334377       0.83331245       0.34320631 </v>
    <v>       0.83330097       0.33323392       0.34322311 </v>
    <v>       0.83319134       0.83361732       0.34314363 </v>
    <v>      -0.00004532      -0.00017093       0.41114285 </v>
    <v>       0.99979004       0.50041992       0.41105324 </v>
    <v>       0.50021625      -0.00017093       0.41114285 </v>
    <v>       0.49994631       0.50010737       0.41125097 </v>
    <v>       0.16708272       0.16583456       0.48036157 </v>
    <v>       0.16870811       0.66608025       0.48033763 </v>
    <v>       0.66525136       0.16949728       0.48020494 </v>
    <v>       0.66521164       0.66608025       0.48033763 </v>
    <v>       0.92278699       0.65442602       0.53457569 </v>
    <v>       0.82716674       0.84566653       0.53445968 </v>
   </varray>
  </structure>
  <varray name="forces" >
   <v>       0.02255891       0.00858923       0.12069369 </v>
   <v>      -0.00000000      -0.01712126       0.13115777 </v>
   <v>      -0.02255891       0.00858923       0.12069369 </v>
   <v>      -0.00000000       0.00335560       0.10616040 </v>
   <v>      -0.00000000       0.00790202      -0.09491915 </v>
   <v>      -0.00490619      -0.00508242      -0.09127919 </v>
   <v>      -0.00000000       0.00172675      -0.10936647 </v>
   <v>       0.00490619      -0.00508242      -0.09127919 </v>
   <v>       0.00489700      -0.00668814      -0.02329380 </v>
   <v>      -0.00000000      -0.00000118      -0.03301524 </v>
   <v>      -0.00489700      -0.00668814      -0.02329380 </v>
   <v>      -0.00000000       0.01354697      -0.04057836 </v>
   <v>       0.01111238       0.00509426       0.01789974 </v>
   <v>      -0.00000000      -0.00681974       0.01205037 </v>
   <v>      -0.01111238       0.00509426       0.01789974 </v>
   <v>       0.00000000      -0.00859089      -0.02754246 </v>
   <v>      -0.00000000      -0.00473276      -0.01289894 </v>
   <v>       0.03596964      -0.02122922       0.02332365 </v>
   <v>      -0.00000000       0.03914892      -0.00646933 </v>
   <v>      -0.03596964      -0.02122922       0.02332365 </v>
   <v>       0.01180706      -0.01164117       0.03480270 </v>
   <v>      -0.00000000      -0.00745453       0.01787798 </v>
   <v>      -0.01180706      -0.01164117       0.03480270 </v>
   <v>      -0.00000000       0.03877945      -0.03638287 </v>
   <v>      -0.01264131      -0.01853784       0.05483596 </v>
   <v>       0.00000000       0.05653888      -0.02149728 </v>
   <v>       0.01264131      -0.01853784       0.05483596 </v>
   <v>      -0.00000000       0.02058778       0.12550195 </v>
   <v>      -0.00000000      -0.07301111      -0.14024047 </v>
   <v>       0.12770207      -0.04270058      -0.06723580 </v>
   <v>      -0.00000000       0.26106323      -0.20259621 </v>
   <v>      -0.12770207      -0.04270058      -0.06723580 </v>
   <v>      -0.00000000       0.16830520       0.14660023 </v>
   <v>      -0.00000000      -0.30883162       0.04666417 </v>
  </varray>
  <varray name="stress" >
   <v>     -32.24865180       0.00000000       0.00000000 </v>
   <v>       0.00000000     -30.58440479      -0.75941361 </v>
   <v>       0.00000000      -0.75940824      -8.65959883 </v>
  </varray>
  <energy>
   <i name="e_fr_energy">   -134.75679900 </i>
   <i name="e_wo_entrp">   -134.74884956 </i>
   <i name="e_0_energy">   -134.75414919 </i>
  </energy>
  <time name="totalsc">   61.50   62.09</time>
 </calculation>
 <calculation>
  <scstep>
   <time name="dav">    8.04    8.11</time>
   <time name="total">    8.51    8.58</time>
   <energy>
    <i name="alphaZ">   1114.72537883 </i>
    <i name="ewald"> 216705.50600226 </i>
    <i name="hartreedc">-260230.23420149 </i>
    <i name="XCdc">   1433.73889537 </i>
    <i name="pawpsdc">  42132.10260691 </i>
    <i name="pawaedc"> -45584.19402837 </i>
    <i name="eentropy">     -0.00761592 </i>
    <i name="bandstr">   -227.95599576 </i>
    <i name="atom">  44535.60175172 </i>
    <i name="e_fr_energy">   -120.71720646 </i>
    <i name="e_wo_entrp">   -120.70959054 </i>
    <i name="e_0_energy">   -120.71466782 </i>
   </energy>
  </scstep>
  <scstep>
   <time name="dav">    4.87    4.91</time>
   <time name="total">    5.32    5.36</time>
   <energy>
    <i name="e_fr_energy">   -120.71745479 </i>
    <i name="e_wo_entrp">   -120.70964816 </i>
    <i name="e_0_energy">   -120.71485258 </i>
   </energy>
  </scstep>
  <scstep>
   <time name="dav">    4.59    4.63</time>
   <time name="total">    4.67    4.71</time>
   <energy>
    <i name="alphaZ">   1114.72537883 </i>
    <i name="ewald"> 216705.50600226 </i>
    <i name="hartreedc">-260230.45262877 </i>
    <i name="XCdc">   1433.73942360 </i>
    <i name="pawpsdc">  42132.07553381 </i>
    <i name="pawaedc"> -45584.15301099 </i>
    <i name="eentropy">     -0.00781814 </i>
    <i name="bandstr">   -227.75194082 </i>
    <i name="atom">  44535.60175172 </i>
    <i name="e_fr_energy">   -120.71730850 </i>
    <i name="e_wo_entrp">   -120.70949036 </i>
    <i name="e_0_energy">   -120.71470245 </i>
   </energy>
  </scstep>
  <structure>
   <crystal>
    <varray name="basis" >
     <v>       5.13359547       0.00000000       0.00000000 </v>
     <v>       2.56679773       4.44582409       0.00000000 </v>
     <v>       0.00000000       0.00000000      29.67047119 </v>
    </varray>
    <i name="volume">    677.17101477 </i>
    <varray name="rec_basis" >
     <v>       0.19479525      -0.11246509       0.00000000 </v>
     <v>       0.00000000       0.22493018       0.00000000 </v>
     <v>       0.00000000       0.00000000       0.03370354 </v>
    </varray>
   </crystal>
   <varray name="positions" >
    <v>       0.00011740       0.00007282       0.00014704 </v>
    <v>       0.00007375       0.49985249       0.00015758 </v>
    <v>       0.49980977       0.00007282       0.00014704 </v>
    <v>       0.49998602       0.50002796       0.00013312 </v>
    <v>       0.16663879       0.16672242       0.07050505 </v>
    <v>       0.16666128       0.66663013       0.07051224 </v>
    <v>       0.66665845       0.16668311       0.07049425 </v>
    <v>       0.66670859       0.66663013       0.07051224 </v>
    <v>       0.33340650       0.33327794       0.13846513 </v>
    <v>       0.33333336       0.83333328       0.13845519 </v>
    <v>       0.83331556       0.33327794       0.13846513 </v>
    <v>       0.83328134       0.83343732       0.13843809 </v>
    <v>       0.00006724       0.00007125       0.20669294 </v>
    <v>       0.00005466       0.49989068       0.20668831 </v>
    <v>       0.49986152       0.00007125       0.20669294 </v>
    <v>       0.50002999       0.49994002       0.20664166 </v>
    <v>       0.16669043       0.16661913       0.27486318 </v>
    <v>       0.16702546       0.66651253       0.27491724 </v>
    <v>       0.66650222       0.16699557       0.27488917 </v>
    <v>       0.66646201       0.66651253       0.27491724 </v>
    <v>       0.33346040       0.33323747       0.34322225 </v>
    <v>       0.33334340       0.83331320       0.34320606 </v>
    <v>       0.83330213       0.33323747       0.34322225 </v>
    <v>       0.83319641       0.83360718       0.34314561 </v>
    <v>      -0.00004370      -0.00016483       0.41113983 </v>
    <v>       0.99979754       0.50040492       0.41105342 </v>
    <v>       0.50020853      -0.00016483       0.41113983 </v>
    <v>       0.49994823       0.50010354       0.41124409 </v>
    <v>       0.16706786       0.16586429       0.48036811 </v>
    <v>       0.16863517       0.66610120       0.48034502 </v>
    <v>       0.66530193       0.16939614       0.48021707 </v>
    <v>       0.66526363       0.66610120       0.48034502 </v>
    <v>       0.92256831       0.65486337       0.53456439 </v>
    <v>       0.82736686       0.84526628       0.53445252 </v>
   </varray>
  </structure>
  <varray name="forces" >
   <v>       0.02183954       0.00822494       0.11813093 </v>
   <v>       0.00000000      -0.01637834       0.12902335 </v>
   <v>      -0.02183954       0.00822494       0.11813093 </v>
   <v>       0.00000000       0.00344906       0.10375163 </v>
   <v>       0.00000000       0.00798118      -0.08909802 </v>
   <v>      -0.00506703      -0.00495044      -0.08596068 </v>
   <v>       0.00000000       0.00158990      -0.10362514 </v>
   <v>       0.00506703      -0.00495044      -0.08596068 </v>
   <v>       0.00497647      -0.00651996      -0.01861563 </v>
   <v>       0.00000000      -0.00020363      -0.02822225 </v>
   <v>      -0.00497647      -0.00651996      -0.01861563 </v>
   <v>       0.00000000       0.01345942      -0.03557547 </v>
   <v>       0.01057811       0.00488517       0.01750143 </v>
   <v>       0.00000000      -0.00634223       0.01177448 </v>
   <v>      -0.01057811       0.00488517       0.01750143 </v>
   <v>       0.00000000      -0.00857423      -0.02787123 </v>
   <v>       0.00000000      -0.00458368      -0.01293562 </v>
   <v>       0.03601112      -0.02126763       0.02278085 </v>
   <v>       0.00000000       0.03940082      -0.00685494 </v>
   <v>      -0.03601112      -0.02126763       0.02278085 </v>
   <v>       0.01183979      -0.01152039       0.03234611 </v>
   <v>       0.00000000      -0.00765813       0.01567746 </v>
   <v>      -0.01183979      -0.01152039       0.03234611 </v>
   <v>       0.00000000       0.03881609      -0.03909220 </v>
   <v>      -0.01382726      -0.01861819       0.04628509 </v>
   <v>       0.00000000       0.05695690      -0.02850982 </v>
   <v>       0.01382726      -0.01861819       0.04628509 </v>
   <v>      -0.00000000       0.02027925       0.11320848 </v>
   <v>       0.00000000      -0.07107841      -0.13811458 </v>
   <v>       0.12377539      -0.04131166      -0.06654289 </v>
   <v>      -0.00000000       0.25553046      -0.19805425 </v>
   <v>      -0.12377539      -0.04131166      -0.06654289 </v>
   <v>      -0.00000000       0.14859583       0.15123886 </v>
   <v>       0.00000000      -0.28908392       0.05142886 </v>
  </varray>
  <varray name="stress" >
   <v>     -32.69222163       0.00000000       0.00000000 </v>
   <v>       0.00000000     -31.00593393      -0.76086508 </v>
   <v>       0.00000000      -0.76085966      -9.26400128 </v>
  </varray>
  <energy>
   <i name="e_fr_energy">   -134.75720815 </i>
   <i name="e_wo_entrp">   -134.74939001 </i>
   <i name="e_0_energy">   -134.75460210 </i>
  </energy>
  <time name="totalsc">   30.06   30.35</time>
 </calculation>
 <calculation>
  <scstep>
   <time name="dav">    6.17    6.22</time>
   <time name="total">    6.64    6.69</time>
   <energy>
    <i name="alphaZ">   1114.72537883 </i>
    <i name="ewald"> 216687.36947109 </i>
    <i name="hartreedc">-260211.77932169 </i>
    <i name="XCdc">   1433.74448995 </i>
    <i name="pawpsdc">  42132.03311668 </i>
    <i name="pawaedc"> -45584.10143058 </i>
    <i name="eentropy">     -0.00729319 </i>
    <i name="bandstr">   -228.30842460 </i>
    <i name="atom">  44535.60175172 </i>
    <i name="e_fr_energy">   -120.72226179 </i>
    <i name="e_wo_entrp">   -120.71496860 </i>
    <i name="e_0_energy">   -120.71983072 </i>
   </energy>
  </scstep>
  <scstep>
   <time name="dav">    6.22    6.27</time>
   <time name="total">    6.67    6.73</time>
   <energy>
    <i name="e_fr_energy">   -120.72319117 </i>
    <i name="e_wo_entrp">   -120.71571186 </i>
    <i name="e_0_energy">   -120.72069806 </i>
   </energy>
  </scstep>
  <scstep>
   <time name="dav">    5.99    6.04</time>
   <time name="total">    6.44    6.50</time>
   <energy>
    <i name="e_fr_energy">   -120.72262257 </i>
    <i name="e_wo_entrp">   -120.71509828 </i>
    <i name="e_0_energy">   -120.72011447 </i>
   </energy>
  </scstep>
  <scstep>
   <time name="dav">    4.59    4.62</time>
   <time name="total">    5.05    5.09</time>
   <energy>
    <i name="e_fr_energy">   -120.72281613 </i>
    <i name="e_wo_entrp">   -120.71524885 </i>
    <i name="e_0_energy">   -120.72029370 </i>
   </energy>
  </scstep>
  <scstep>
   <time name="dav">    4.66    4.70</time>
   <time name="total">    5.12    5.16</time>
   <energy>
    <i name="e_fr_energy">   -120.72248625 </i>
    <i name="e_wo_entrp">   -120.71539110 </i>
    <i name="e_0_energy">   -120.72012120 </i>
   </energy>
  </scstep>
  <scstep>
   <time name="dav">    5.02    5.06</time>
   <time name="total">    5.09    5.13</time>
   <energy>
    <i name="alphaZ">   1114.72537883 </i>
    <i name="ewald"> 216687.36947109 </i>
    <i name="hartreedc">-260212.46855611 </i>
    <i name="XCdc">   1433.76323714 </i>
    <i name="pawpsdc">  42132.30147304 </i>
    <i name="pawaedc"> -45584.36149931 </i>
    <i name="eentropy">     -0.00762951 </i>
    <i name="bandstr">   -227.64614678 </i>
    <i name="atom">  44535.60175172 </i>
    <i name="e_fr_energy">   -120.72251989 </i>
    <i name="e_wo_entrp">   -120.71489038 </i>
    <i name="e_0_energy">   -120.71997672 </i>
   </energy>
  </scstep>
  <structure>
   <crystal>
    <varray name="basis" >
     <v>       5.13359547       0.00000000       0.00000000 </v>
     <v>       2.56679773       4.44582409       0.00000000 </v>
     <v>       0.00000000       0.00000000      29.67047119 </v>
    </varray>
    <i name="volume">    677.17101477 </i>
    <varray name="rec_basis" >
     <v>       0.19479525      -0.11246509       0.00000000 </v>
     <v>       0.00000000       0.22493018       0.00000000 </v>
     <v>       0.00000000       0.00000000       0.03370354 </v>
    </varray>
   </crystal>
   <varray name="positions" >
    <v>       0.00010201       0.00006327       0.00012776 </v>
    <v>       0.00006408       0.49987184       0.00013692 </v>
    <v>       0.49983472       0.00006327       0.00012776 </v>
    <v>       0.49998785       0.50002429       0.00011566 </v>
    <v>       0.16664244       0.16671511       0.07052213 </v>
    <v>       0.16666199       0.66663492       0.07052837 </v>
    <v>       0.66665952       0.16668095       0.07051274 </v>
    <v>       0.66670309       0.66663492       0.07052837 </v>
    <v>       0.33339691       0.33328520       0.13846580 </v>
    <v>       0.33333335       0.83333329       0.13845716 </v>
    <v>       0.83331789       0.33328520       0.13846580 </v>
    <v>       0.83328816       0.83342369       0.13844231 </v>
    <v>       0.00005842       0.00006190       0.20669050 </v>
    <v>       0.00004749       0.49990501       0.20668647 </v>
    <v>       0.49987968       0.00006190       0.20669050 </v>
    <v>       0.50002606       0.49994788       0.20664594 </v>
    <v>       0.16668732       0.16662537       0.27486651 </v>
    <v>       0.16697841       0.66653274       0.27491348 </v>
    <v>       0.66652378       0.16695243       0.27488909 </v>
    <v>       0.66648885       0.66653274       0.27491348 </v>
    <v>       0.33344374       0.33325004       0.34321922 </v>
    <v>       0.33334208       0.83331584       0.34320516 </v>
    <v>       0.83330622       0.33325004       0.34321922 </v>
    <v>       0.83321437       0.83357126       0.34315263 </v>
    <v>      -0.00003797      -0.00014321       0.41112914 </v>
    <v>       0.99982409       0.50035181       0.41105406 </v>
    <v>       0.50018118      -0.00014321       0.41112914 </v>
    <v>       0.49995502       0.50008996       0.41121972 </v>
    <v>       0.16701524       0.16596951       0.48039126 </v>
    <v>       0.16837701       0.66617536       0.48037120 </v>
    <v>       0.66548090       0.16903819       0.48026003 </v>
    <v>       0.66544763       0.66617536       0.48037120 </v>
    <v>       0.92179436       0.65641128       0.53452438 </v>
    <v>       0.82807514       0.84384973       0.53442718 </v>
   </varray>
  </structure>
  <varray name="forces" >
   <v>       0.02268128       0.00849976       0.12074699 </v>
   <v>      -0.00000000      -0.01722753       0.13147345 </v>
   <v>      -0.02268128       0.00849976       0.12074699 </v>
   <v>      -0.00000000       0.00352503       0.10613741 </v>
   <v>      -0.00000000       0.00786805      -0.09490798 </v>
   <v>      -0.00469792      -0.00501112      -0.09140397 </v>
   <v>      -0.00000000       0.00180911      -0.10944566 </v>
   <v>       0.00469792      -0.00501112      -0.09140397 </v>
   <v>       0.00523789      -0.00673480      -0.01908283 </v>
   <v>      -0.00000000      -0.00007215      -0.02874201 </v>
   <v>      -0.00523789      -0.00673480      -0.01908283 </v>
   <v>       0.00000000       0.01356821      -0.03709059 </v>
   <v>       0.01146190       0.00510916       0.01859266 </v>
   <v>      -0.00000000      -0.00709481       0.01296241 </v>
   <v>      -0.01146190       0.00510916       0.01859266 </v>
   <v>      -0.00000000      -0.00833278      -0.02770240 </v>
   <v>      -0.00000000      -0.00469406      -0.01255038 </v>
   <v>       0.03755256      -0.02145250       0.02507343 </v>
   <v>       0.00000000       0.04026153      -0.00449780 </v>
   <v>      -0.03755256      -0.02145250       0.02507343 </v>
   <v>       0.01243981      -0.01188571       0.03329369 </v>
   <v>       0.00000000      -0.00707265       0.01695513 </v>
   <v>      -0.01243981      -0.01188571       0.03329369 </v>
   <v>      -0.00000000       0.03934743      -0.03959378 </v>
   <v>      -0.01503980      -0.01982130       0.05287294 </v>
   <v>      -0.00000000       0.05867071      -0.02539650 </v>
   <v>       0.01503980      -0.01982130       0.05287294 </v>
   <v>      -0.00000000       0.01948145       0.12592783 </v>
   <v>       0.00000000      -0.07920696      -0.14686022 </v>
   <v>       0.14374251      -0.04611187      -0.08063099 </v>
   <v>      -0.00000000       0.27615510      -0.21820445 </v>
   <v>      -0.14374251      -0.04611187      -0.08063099 </v>
   <v>       0.00000000       0.05257289       0.16626968 </v>
   <v>      -0.00000000      -0.19474184       0.06634204 </v>
  </varray>
  <varray name="stress" >
   <v>     -32.44763577       0.00000000       0.00000000 </v>
   <v>       0.00000000     -30.57917165      -0.76276396 </v>
   <v>       0.00000000      -0.76275845      -8.91752867 </v>
  </varray>
  <energy>
   <i name="e_fr_energy">   -134.75749513 </i>
   <i name="e_wo_entrp">   -134.74986562 </i>
   <i name="e_0_energy">   -134.75495196 </i>
  </energy>
  <time name="totalsc">   46.56   46.99</time>
 </calculation>
 <calculation>
  <scstep>
   <time name="dav">    6.22    6.28</time>
   <time name="total">    6.68    6.74</time>
   <energy>
    <i name="alphaZ">   1114.72537883 </i>
    <i name="ewald"> 216696.01698004 </i>
    <i name="hartreedc">-260221.18477346 </i>
    <i name="XCdc">   1433.76006486 </i>
    <i name="pawpsdc">  42132.31786036 </i>
    <i name="pawaedc"> -45584.37576062 </i>
    <i name="eentropy">     -0.00761290 </i>
    <i name="bandstr">   -227.57438113 </i>
    <i name="atom">  44535.60175172 </i>
    <i name="e_fr_energy">   -120.72049230 </i>
    <i name="e_wo_entrp">   -120.71287940 </i>
    <i name="e_0_energy">   -120.71795467 </i>
   </energy>
  </scstep>
  <scstep>
   <time name="dav">    5.26    5.30</time>
   <time name="total">    5.34    5.38</time>
   <energy>
    <i name="alphaZ">   1114.72537883 </i>
    <i name="ewald"> 216696.01698004 </i>
    <i name="hartreedc">-260221.12780921 </i>
    <i name="XCdc">   1433.75526973 </i>
    <i name="pawpsdc">  42132.40101734 </i>
    <i name="pawaedc"> -45584.45216189 </i>
    <i name="eentropy">     -0.00751770 </i>
    <i name="bandstr">   -227.63351672 </i>
    <i name="atom">  44535.60175172 </i>
    <i name="e_fr_energy">   -120.72060787 </i>
    <i name="e_wo_entrp">   -120.71309017 </i>
    <i name="e_0_energy">   -120.71810197 </i>
   </energy>
  </scstep>
  <structure>
   <crystal>
    <varray name="basis" >
     <v>       5.13359547       0.00000000       0.00000000 </v>
     <v>       2.56679773       4.44582409       0.00000000 </v>
     <v>       0.00000000       0.00000000      29.67047119 </v>
    </varray>
    <i name="volume">    677.17101477 </i>
    <varray name="rec_basis" >
     <v>       0.19479525      -0.11246509       0.00000000 </v>
     <v>       0.00000000       0.22493018       0.00000000 </v>
     <v>       0.00000000       0.00000000       0.03370354 </v>
    </varray>
   </crystal>
   <varray name="positions" >
    <v>       0.00010935       0.00006783       0.00013695 </v>
    <v>       0.00006869       0.49986261       0.00014677 </v>
    <v>       0.49982282       0.00006783       0.00013695 </v>
    <v>       0.49998698       0.50002604       0.00012399 </v>
    <v>       0.16664070       0.16671860       0.07051398 </v>
    <v>       0.16666165       0.66663263       0.07052068 </v>
    <v>       0.66665901       0.16668198       0.07050392 </v>
    <v>       0.66670572       0.66663263       0.07052068 </v>
    <v>       0.33340148       0.33328174       0.13846548 </v>
    <v>       0.33333336       0.83333329       0.13845622 </v>
    <v>       0.83331678       0.33328174       0.13846548 </v>
    <v>       0.83328490       0.83343019       0.13844030 </v>
    <v>       0.00006263       0.00006636       0.20669166 </v>
    <v>       0.00005091       0.49989818       0.20668735 </v>
    <v>       0.49987102       0.00006636       0.20669166 </v>
    <v>       0.50002793       0.49994413       0.20664390 </v>
    <v>       0.16668880       0.16662239       0.27486492 </v>
    <v>       0.16700085       0.66652310       0.27491527 </v>
    <v>       0.66651350       0.16697301       0.27488913 </v>
    <v>       0.66647605       0.66652310       0.27491527 </v>
    <v>       0.33345169       0.33324404       0.34322067 </v>
    <v>       0.33334271       0.83331458       0.34320559 </v>
    <v>       0.83330427       0.33324404       0.34322067 </v>
    <v>       0.83320580       0.83358839       0.34314928 </v>
    <v>      -0.00004070      -0.00015352       0.41113424 </v>
    <v>       0.99981143       0.50037714       0.41105375 </v>
    <v>       0.50019422      -0.00015352       0.41113424 </v>
    <v>       0.49995178       0.50009643       0.41123134 </v>
    <v>       0.16704034       0.16591933       0.48038022 </v>
    <v>       0.16850014       0.66613999       0.48035871 </v>
    <v>       0.66539554       0.16920891       0.48023954 </v>
    <v>       0.66535987       0.66613999       0.48035871 </v>
    <v>       0.92216350       0.65567300       0.53454346 </v>
    <v>       0.82773732       0.84452536       0.53443927 </v>
   </varray>
  </structure>
  <varray name="forces" >
   <v>       0.01950022       0.00773165       0.10557353 </v>
   <v>       0.00000000      -0.01449209       0.11559770 </v>
   <v>      -0.01950022       0.00773165       0.10557353 </v>
   <v>       0.00000000       0.00335573       0.09279328 </v>
   <v>       0.00000000       0.00741396      -0.08119368 </v>
   <v>      -0.00446329      -0.00396862      -0.07817867 </v>
   <v>       0.00000000       0.00173712      -0.09367494 </v>
   <v>       0.00446329      -0.00396862      -0.07817867 </v>
   <v>       0.00447214      -0.00496939      -0.02145554 </v>
   <v>       0.00000000       0.00002467      -0.02965135 </v>
   <v>      -0.00447214      -0.00496939      -0.02145554 </v>
   <v>       0.00000000       0.01172177      -0.03527676 </v>
   <v>       0.00889363       0.00454195       0.01515918 </v>
   <v>       0.00000000      -0.00515545       0.00993920 </v>
   <v>      -0.00889363       0.00454195       0.01515918 </v>
   <v>       0.00000000      -0.00708074      -0.02210356 </v>
   <v>       0.00000000      -0.00322706      -0.00859175 </v>
   <v>       0.03076655      -0.01781311       0.02020487 </v>
   <v>      -0.00000000       0.03347103      -0.00517780 </v>
   <v>      -0.03076655      -0.01781311       0.02020487 </v>
   <v>       0.01086740      -0.00930489       0.02406551 </v>
   <v>       0.00000000      -0.00609124       0.00977126 </v>
   <v>      -0.01086740      -0.00930489       0.02406551 </v>
   <v>       0.00000000       0.03365691      -0.03318191 </v>
   <v>      -0.01022496      -0.01528438       0.04087562 </v>
   <v>       0.00000000       0.04884381      -0.02622778 </v>
   <v>       0.01022496      -0.01528438       0.04087562 </v>
   <v>       0.00000000       0.01811313       0.10605863 </v>
   <v>      -0.00000000      -0.06164201      -0.12598400 </v>
   <v>       0.11259884      -0.03897888      -0.05869954 </v>
   <v>       0.00000000       0.23610426      -0.18141067 </v>
   <v>      -0.11259884      -0.03897888      -0.05869954 </v>
   <v>      -0.00000000       0.09996203       0.15628790 </v>
   <v>       0.00000000      -0.24062448       0.05693632 </v>
  </varray>
  <varray name="stress" >
   <v>     -32.44609079       0.00000000       0.00000000 </v>
   <v>       0.00000000     -30.70105518      -0.75459965 </v>
   <v>       0.00000000      -0.75459424      -8.97077147 </v>
  </varray>
  <energy>
   <i name="e_fr_energy">   -134.75773250 </i>
   <i name="e_wo_entrp">   -134.75021480 </i>
   <i name="e_0_energy">   -134.75522660 </i>
  </energy>
  <time name="totalsc">   23.60   23.85</time>
 </calculation>
 <calculation>
  <scstep>
   <time name="dav">    6.06    6.11</time>
   <time name="total">    6.52    6.57</time>
   <energy>
    <i name="alphaZ">   1114.72537883 </i>
    <i name="ewald"> 216693.50585766 </i>
    <i name="hartreedc">-260218.64974613 </i>
    <i name="XCdc">   1433.75583404 </i>
    <i name="pawpsdc">  42132.39919578 </i>
    <i name="pawaedc"> -45584.45022275 </i>
    <i name="eentropy">     -0.00749612 </i>
    <i name="bandstr">   -227.60170455 </i>
    <i name="atom">  44535.60175172 </i>
    <i name="e_fr_energy">   -120.72115152 </i>
    <i name="e_wo_entrp">   -120.71365540 </i>
    <i name="e_0_energy">   -120.71865282 </i>
   </energy>
  </scstep>
  <scstep>
   <time name="dav">    5.33    5.38</time>
   <time name="total">    5.78    5.83</time>
   <energy>
    <i name="e_fr_energy">   -120.72624225 </i>
    <i name="e_wo_entrp">   -120.71868949 </i>
    <i name="e_0_energy">   -120.72372467 </i>
   </energy>
  </scstep>
  <scstep>
   <time name="dav">    4.49    4.53</time>
   <time name="total">    4.95    4.99</time>
   <energy>
    <i name="e_fr_energy">   -120.72115854 </i>
[...]
       <r>    11.0679     8.1387   223.4679 </r>
       <r>    11.1478     6.9153   224.0203 </r>
       <r>    11.2276     7.7636   224.6404 </r>
       <r>    11.3075    10.5978   225.4869 </r>
       <r>    11.3874    12.4223   226.4791 </r>
       <r>    11.4673    10.9656   227.3549 </r>
       <r>    11.5471     7.4280   227.9482 </r>
       <r>    11.6270     4.7921   228.3310 </r>
       <r>    11.7069     4.5613   228.6953 </r>
       <r>    11.7868     5.9925   229.1739 </r>
       <r>    11.8666     7.1954   229.7487 </r>
       <r>    11.9465     6.5802   230.2742 </r>
       <r>    12.0264     4.3093   230.6184 </r>
       <r>    12.1062     2.0317   230.7807 </r>
       <r>    12.1861     0.7832   230.8433 </r>
       <r>    12.2660     0.3327   230.8699 </r>
       <r>    12.3459     0.4491   230.9057 </r>
       <r>    12.4257     1.2191   231.0031 </r>
       <r>    12.5056     2.1775   231.1770 </r>
       <r>    12.5855     2.4520   231.3729 </r>
       <r>    12.6654     2.0143   231.5338 </r>
       <r>    12.7452     1.7061   231.6700 </r>
       <r>    12.8251     1.7652   231.8110 </r>
       <r>    12.9050     1.5481   231.9347 </r>
       <r>    12.9848     0.8409   232.0018 </r>
       <r>    13.0647     0.1782   232.0161 </r>
       <r>    13.1446    -0.0825   232.0095 </r>
       <r>    13.2245    -0.0795   232.0031 </r>
       <r>    13.3043    -0.0308   232.0007 </r>
       <r>    13.3842    -0.0072   232.0001 </r>
       <r>    13.4641    -0.0011   232.0000 </r>
       <r>    13.5440    -0.0001   232.0000 </r>
       <r>    13.6238    -0.0000   232.0000 </r>
       <r>    13.7037    -0.0000   232.0000 </r>
       <r>    13.7836    -0.0000   232.0000 </r>
       <r>    13.8635    -0.0000   232.0000 </r>
       <r>    13.9433    -0.0000   232.0000 </r>
       <r>    14.0232    -0.0000   232.0000 </r>
       <r>    14.1031    -0.0000   232.0000 </r>
       <r>    14.1829     0.0000   232.0000 </r>
       <r>    14.2628     0.0000   232.0000 </r>
       <r>    14.3427     0.0000   232.0000 </r>
       <r>    14.4226     0.0000   232.0000 </r>
       <r>    14.5024     0.0000   232.0000 </r>
       <r>    14.5823     0.0000   232.0000 </r>
       <r>    14.6622     0.0000   232.0000 </r>
       <r>    14.7421     0.0000   232.0000 </r>
       <r>    14.8219     0.0000   232.0000 </r>
      </set>
      <set comment="spin 2">
       <r>    -9.1400     0.0000     0.0000 </r>
       <r>    -9.0601     0.0000     0.0000 </r>
       <r>    -8.9803     0.0000     0.0000 </r>
       <r>    -8.9004     0.0000     0.0000 </r>
       <r>    -8.8205     0.0000     0.0000 </r>
       <r>    -8.7407    -0.0000    -0.0000 </r>
       <r>    -8.6608    -0.0000    -0.0000 </r>
       <r>    -8.5809    -0.0000    -0.0000 </r>
       <r>    -8.5010    -0.0000    -0.0000 </r>
       <r>    -8.4212    -0.0000    -0.0000 </r>
       <r>    -8.3413    -0.0000    -0.0000 </r>
       <r>    -8.2614    -0.0000    -0.0000 </r>
       <r>    -8.1815    -0.0000    -0.0000 </r>
       <r>    -8.1017    -0.0000    -0.0000 </r>
       <r>    -8.0218    -0.0000    -0.0000 </r>
       <r>    -7.9419    -0.0000    -0.0000 </r>
       <r>    -7.8620    -0.0000    -0.0000 </r>
       <r>    -7.7822    -0.0000    -0.0000 </r>
       <r>    -7.7023    -0.0003    -0.0000 </r>
       <r>    -7.6224    -0.0020    -0.0002 </r>
       <r>    -7.5426    -0.0083    -0.0009 </r>
       <r>    -7.4627    -0.0206    -0.0025 </r>
       <r>    -7.3828    -0.0181    -0.0039 </r>
       <r>    -7.3029     0.0578     0.0007 </r>
       <r>    -7.2231     0.2398     0.0198 </r>
       <r>    -7.1432     0.4190     0.0533 </r>
       <r>    -7.0633     0.4158     0.0865 </r>
       <r>    -6.9834     0.2387     0.1056 </r>
       <r>    -6.9036     0.1171     0.1149 </r>
       <r>    -6.8237     0.2072     0.1315 </r>
       <r>    -6.7438     0.3811     0.1619 </r>
       <r>    -6.6639     0.3768     0.1920 </r>
       <r>    -6.5841     0.1403     0.2032 </r>
       <r>    -6.5042    -0.0159     0.2019 </r>
       <r>    -6.4243     0.4040     0.2342 </r>
       <r>    -6.3445     1.5308     0.3565 </r>
       <r>    -6.2646     2.6060     0.5646 </r>
       <r>    -6.1847     2.6263     0.7744 </r>
       <r>    -6.1048     1.7728     0.9160 </r>
       <r>    -6.0250     1.3203     1.0215 </r>
       <r>    -5.9451     1.9073     1.1738 </r>
       <r>    -5.8652     2.6490     1.3854 </r>
       <r>    -5.7853     2.3678     1.5745 </r>
       <r>    -5.7055     1.1859     1.6692 </r>
       <r>    -5.6256     0.1182     1.6787 </r>
       <r>    -5.5457    -0.2988     1.6548 </r>
       <r>    -5.4659    -0.0284     1.6525 </r>
       <r>    -5.3860     1.0218     1.7341 </r>
       <r>    -5.3061     2.4985     1.9337 </r>
       <r>    -5.2262     3.2093     2.1900 </r>
       <r>    -5.1464     2.4223     2.3835 </r>
       <r>    -5.0665     0.9306     2.4579 </r>
       <r>    -4.9866    -0.0858     2.4510 </r>
       <r>    -4.9067    -0.2684     2.4296 </r>
       <r>    -4.8269     0.3058     2.4540 </r>
       <r>    -4.7470     1.4589     2.5705 </r>
       <r>    -4.6671     2.6063     2.7787 </r>
       <r>    -4.5872     3.2934     3.0417 </r>
       <r>    -4.5074     3.9054     3.3537 </r>
       <r>    -4.4275     4.6810     3.7276 </r>
       <r>    -4.3476     4.7878     4.1100 </r>
       <r>    -4.2678     3.6331     4.4002 </r>
       <r>    -4.1879     2.1973     4.5757 </r>
       <r>    -4.1080     1.8280     4.7217 </r>
       <r>    -4.0281     2.4957     4.9210 </r>
       <r>    -3.9483     3.5112     5.2015 </r>
       <r>    -3.8684     4.7874     5.5838 </r>
       <r>    -3.7885     6.0534     6.0674 </r>
       <r>    -3.7086     6.4585     6.5832 </r>
       <r>    -3.6288     5.9860     7.0613 </r>
       <r>    -3.5489     5.7409     7.5199 </r>
       <r>    -3.4690     6.1958     8.0148 </r>
       <r>    -3.3891     6.3677     8.5234 </r>
       <r>    -3.3093     5.4461     8.9584 </r>
       <r>    -3.2294     3.9840     9.2766 </r>
       <r>    -3.1495     2.9586     9.5129 </r>
       <r>    -3.0697     3.0312     9.7550 </r>
       <r>    -2.9898     4.3402    10.1017 </r>
       <r>    -2.9099     6.1828    10.5955 </r>
       <r>    -2.8300     8.0954    11.2421 </r>
       <r>    -2.7502    10.8862    12.1116 </r>
       <r>    -2.6703    15.2353    13.3285 </r>
       <r>    -2.5904    20.3788    14.9562 </r>
       <r>    -2.5105    24.6428    16.9245 </r>
       <r>    -2.4307    26.0983    19.0091 </r>
       <r>    -2.3508    23.7945    20.9096 </r>
       <r>    -2.2709    19.7005    22.4832 </r>
       <r>    -2.1911    17.7942    23.9044 </r>
       <r>    -2.1112    20.3027    25.5261 </r>
       <r>    -2.0313    26.1659    27.6160 </r>
       <r>    -1.9514    32.6857    30.2268 </r>
       <r>    -1.8716    37.1270    33.1922 </r>
       <r>    -1.7917    38.1105    36.2362 </r>
       <r>    -1.7118    36.1526    39.1238 </r>
       <r>    -1.6319    32.5371    41.7227 </r>
       <r>    -1.5521    29.2121    44.0559 </r>
       <r>    -1.4722    28.1149    46.3016 </r>
       <r>    -1.3923    29.6161    48.6671 </r>
       <r>    -1.3124    33.7304    51.3612 </r>
       <r>    -1.2326    40.2965    54.5799 </r>
       <r>    -1.1527    46.4839    58.2927 </r>
       <r>    -1.0728    48.8493    62.1944 </r>
       <r>    -0.9930    49.2438    66.1277 </r>
       <r>    -0.9131    52.8822    70.3515 </r>
       <r>    -0.8332    59.3876    75.0950 </r>
       <r>    -0.7533    63.0978    80.1348 </r>
       <r>    -0.6735    62.0329    85.0896 </r>
       <r>    -0.5936    59.1682    89.8156 </r>
       <r>    -0.5137    56.8662    94.3576 </r>
       <r>    -0.4338    55.3436    98.7781 </r>
       <r>    -0.3540    54.6587   103.1439 </r>
       <r>    -0.2741    54.4138   107.4901 </r>
       <r>    -0.1942    53.0190   111.7249 </r>
       <r>    -0.1143    50.6279   115.7687 </r>
       <r>    -0.0345    49.2063   119.6990 </r>
       <r>     0.0454    49.3289   123.6390 </r>
       <r>     0.1253    52.2821   127.8150 </r>
       <r>     0.2051    60.0886   132.6144 </r>
       <r>     0.2850    69.3509   138.1537 </r>
       <r>     0.3649    73.8329   144.0510 </r>
       <r>     0.4448    73.8270   149.9478 </r>
       <r>     0.5246    73.7424   155.8378 </r>
       <r>     0.6045    71.6343   161.5595 </r>
       <r>     0.6844    60.0951   166.3594 </r>
       <r>     0.7643    38.2365   169.4135 </r>
       <r>     0.8441    15.5838   170.6582 </r>
       <r>     0.9240     1.9717   170.8157 </r>
       <r>     1.0039    -1.4101   170.7031 </r>
       <r>     1.0837     0.2666   170.7244 </r>
       <r>     1.1636     2.2270   170.9023 </r>
       <r>     1.2435     3.1298   171.1523 </r>
       <r>     1.3234     3.7994   171.4557 </r>
       <r>     1.4032     4.7144   171.8323 </r>
       <r>     1.4831     5.1070   172.2402 </r>
       <r>     1.5630     4.1144   172.5688 </r>
       <r>     1.6429     2.4063   172.7610 </r>
       <r>     1.7227     2.1034   172.9290 </r>
       <r>     1.8026     4.5302   173.2909 </r>
       <r>     1.8825     8.4998   173.9698 </r>
       <r>     1.9624    11.3019   174.8725 </r>
       <r>     2.0422    11.3585   175.7797 </r>
       <r>     2.1221     9.8940   176.5700 </r>
       <r>     2.2020     9.0504   177.2929 </r>
       <r>     2.2818     8.3853   177.9626 </r>
       <r>     2.3617     6.0490   178.4458 </r>
       <r>     2.4416     2.9296   178.6798 </r>
       <r>     2.5215     1.8199   178.8251 </r>
       <r>     2.6013     3.3804   179.0952 </r>
       <r>     2.6812     5.7659   179.5557 </r>
       <r>     2.7611     7.0021   180.1150 </r>
       <r>     2.8410     6.3258   180.6202 </r>
       <r>     2.9208     4.6491   180.9916 </r>
       <r>     3.0007     3.7206   181.2888 </r>
       <r>     3.0806     3.7252   181.5863 </r>
       <r>     3.1605     3.3379   181.8529 </r>
       <r>     3.2403     2.4170   182.0460 </r>
       <r>     3.3202     2.2838   182.2284 </r>
       <r>     3.4001     3.7310   182.5264 </r>
       <r>     3.4799     6.3329   183.0322 </r>
       <r>     3.5598     8.9353   183.7459 </r>
       <r>     3.6397    10.1330   184.5553 </r>
       <r>     3.7196     9.0695   185.2797 </r>
       <r>     3.7994     6.3710   185.7885 </r>
       <r>     3.8793     3.8888   186.0992 </r>
       <r>     3.9592     2.8097   186.3236 </r>
       <r>     4.0391     2.4192   186.5168 </r>
       <r>     4.1189     1.5972   186.6444 </r>
       <r>     4.1988     0.4872   186.6833 </r>
       <r>     4.2787    -0.2537   186.6630 </r>
       <r>     4.3585    -0.4333   186.6284 </r>
       <r>     4.4384     0.1933   186.6439 </r>
       <r>     4.5183     2.0607   186.8085 </r>
       <r>     4.5982     4.4990   187.1678 </r>
       <r>     4.6780     5.6557   187.6195 </r>
       <r>     4.7579     4.9219   188.0127 </r>
       <r>     4.8378     3.6273   188.3024 </r>
       <r>     4.9177     2.6181   188.5115 </r>
       <r>     4.9975     1.5461   188.6350 </r>
       <r>     5.0774     0.4006   188.6670 </r>
       <r>     5.1573    -0.2512   188.6469 </r>
       <r>     5.2372     0.0600   188.6517 </r>
       <r>     5.3170     1.5304   188.7740 </r>
       <r>     5.3969     3.7476   189.0733 </r>
       <r>     5.4768     5.5898   189.5198 </r>
       <r>     5.5566     6.3984   190.0308 </r>
       <r>     5.6365     6.8224   190.5758 </r>
       <r>     5.7164     7.3915   191.1661 </r>
       <r>     5.7963     7.3066   191.7497 </r>
       <r>     5.8761     6.0329   192.2316 </r>
       <r>     5.9560     4.3704   192.5807 </r>
       <r>     6.0359     3.0291   192.8226 </r>
       <r>     6.1158     2.0329   192.9850 </r>
       <r>     6.1956     1.8130   193.1298 </r>
       <r>     6.2755     3.3359   193.3963 </r>
       <r>     6.3554     6.2156   193.8927 </r>
       <r>     6.4353     7.9712   194.5294 </r>
       <r>     6.5151     7.0934   195.0960 </r>
       <r>     6.5950     5.0927   195.5028 </r>
       <r>     6.6749     3.7919   195.8056 </r>
       <r>     6.7547     3.3946   196.0768 </r>
       <r>     6.8346     3.8581   196.3849 </r>
       <r>     6.9145     4.9828   196.7829 </r>
       <r>     6.9944     5.7519   197.2423 </r>
       <r>     7.0742     5.9799   197.7200 </r>
       <r>     7.1541     6.6675   198.2525 </r>
       <r>     7.2340     7.8581   198.8802 </r>
       <r>     7.3139     8.6761   199.5732 </r>
       <r>     7.3937     8.6594   200.2648 </r>
       <r>     7.4736     7.3596   200.8526 </r>
       <r>     7.5535     4.8335   201.2387 </r>
       <r>     7.6333     2.7868   201.4613 </r>
       <r>     7.7132     2.8735   201.6908 </r>
       <r>     7.7931     4.7363   202.0691 </r>
       <r>     7.8730     6.9103   202.6211 </r>
       <r>     7.9528     8.2541   203.2803 </r>
       <r>     8.0327     8.0734   203.9252 </r>
       <r>     8.1126     6.3692   204.4339 </r>
       <r>     8.1925     4.4007   204.7854 </r>
       <r>     8.2723     3.5689   205.0705 </r>
       <r>     8.3522     4.0454   205.3936 </r>
       <r>     8.4321     5.6403   205.8441 </r>
       <r>     8.5120     8.2190   206.5006 </r>
       <r>     8.5918    10.3219   207.3250 </r>
       <r>     8.6717     9.7873   208.1068 </r>
       <r>     8.7516     6.6465   208.6377 </r>
       <r>     8.8314     3.5327   208.9198 </r>
       <r>     8.9113     2.6112   209.1284 </r>
       <r>     8.9912     3.4647   209.4051 </r>
       <r>     9.0711     4.4053   209.7570 </r>
       <r>     9.1509     4.7672   210.1378 </r>
       <r>     9.2308     5.3086   210.5618 </r>
       <r>     9.3107     6.7812   211.1034 </r>
       <r>     9.3906     8.5376   211.7853 </r>
       <r>     9.4704     8.8891   212.4953 </r>
       <r>     9.5503     7.1444   213.0660 </r>
       <r>     9.6302     4.7759   213.4475 </r>
       <r>     9.7101     3.7667   213.7483 </r>
       <r>     9.7899     4.2844   214.0905 </r>
       <r>     9.8698     5.1436   214.5014 </r>
       <r>     9.9497     6.1274   214.9908 </r>
       <r>    10.0295     7.8446   215.6173 </r>
       <r>    10.1094     9.3634   216.3652 </r>
       <r>    10.1893     8.8347   217.0709 </r>
       <r>    10.2692     6.5882   217.5971 </r>
       <r>    10.3490     4.7930   217.9799 </r>
       <r>    10.4289     4.5836   218.3460 </r>
       <r>    10.5088     5.6270   218.7955 </r>
       <r>    10.5887     7.2736   219.3765 </r>
       <r>    10.6685     8.6191   220.0649 </r>
       <r>    10.7484     8.7487   220.7637 </r>
       <r>    10.8283     8.2294   221.4210 </r>
       <r>    10.9081     8.4965   222.0996 </r>
       <r>    10.9880     8.9922   222.8179 </r>
       <r>    11.0679     8.1387   223.4679 </r>
       <r>    11.1478     6.9153   224.0203 </r>
       <r>    11.2276     7.7635   224.6404 </r>
       <r>    11.3075    10.5978   225.4869 </r>
       <r>    11.3874    12.4222   226.4791 </r>
       <r>    11.4673    10.9656   227.3549 </r>
       <r>    11.5471     7.4280   227.9482 </r>
       <r>    11.6270     4.7921   228.3310 </r>
       <r>    11.7069     4.5613   228.6953 </r>
       <r>    11.7868     5.9925   229.1739 </r>
       <r>    11.8666     7.1954   229.7487 </r>
       <r>    11.9465     6.5802   230.2742 </r>
       <r>    12.0264     4.3093   230.6184 </r>
       <r>    12.1062     2.0317   230.7807 </r>
       <r>    12.1861     0.7832   230.8433 </r>
       <r>    12.2660     0.3327   230.8698 </r>
       <r>    12.3459     0.4491   230.9057 </r>
       <r>    12.4257     1.2191   231.0031 </r>
       <r>    12.5056     2.1775   231.1770 </r>
       <r>    12.5855     2.4520   231.3729 </r>
       <r>    12.6654     2.0143   231.5338 </r>
       <r>    12.7452     1.7061   231.6700 </r>
       <r>    12.8251     1.7652   231.8110 </r>
       <r>    12.9050     1.5481   231.9347 </r>
       <r>    12.9848     0.8409   232.0018 </r>
       <r>    13.0647     0.1782   232.0161 </r>
       <r>    13.1446    -0.0825   232.0095 </r>
       <r>    13.2245    -0.0795   232.0031 </r>
       <r>    13.3043    -0.0308   232.0007 </r>
       <r>    13.3842    -0.0072   232.0001 </r>
       <r>    13.4641    -0.0011   232.0000 </r>
       <r>    13.5440    -0.0001   232.0000 </r>
       <r>    13.6238    -0.0000   232.0000 </r>
       <r>    13.7037    -0.0000   232.0000 </r>
       <r>    13.7836    -0.0000   232.0000 </r>
       <r>    13.8635    -0.0000   232.0000 </r>
       <r>    13.9433    -0.0000   232.0000 </r>
       <r>    14.0232    -0.0000   232.0000 </r>
       <r>    14.1031    -0.0000   232.0000 </r>
       <r>    14.1829     0.0000   232.0000 </r>
       <r>    14.2628     0.0000   232.0000 </r>
       <r>    14.3427     0.0000   232.0000 </r>
       <r>    14.4226     0.0000   232.0000 </r>
       <r>    14.5024     0.0000   232.0000 </r>
       <r>    14.5823     0.0000   232.0000 </r>
       <r>    14.6622     0.0000   232.0000 </r>
       <r>    14.7421     0.0000   232.0000 </r>
       <r>    14.8219     0.0000   232.0000 </r>
      </set>
     </set>
    </array>
   </total>
  </dos>
 </calculation>
 <structure name="finalpos" >
  <crystal>
   <varray name="basis" >
    <v>       5.13359547       0.00000000       0.00000000 </v>
    <v>       2.56679773       4.44582409       0.00000000 </v>
    <v>       0.00000000       0.00000000      29.67047119 </v>
   </varray>
   <i name="volume">    677.17101477 </i>
   <varray name="rec_basis" >
    <v>       0.19479525      -0.11246509       0.00000000 </v>
    <v>       0.00000000       0.22493018       0.00000000 </v>
    <v>       0.00000000       0.00000000       0.03370354 </v>
   </varray>
  </crystal>
  <varray name="positions" >
   <v>      -0.00124560       0.00250251      -0.00110127 </v>
   <v>      -0.00122299       0.50244597      -0.00106754 </v>
   <v>       0.49874309       0.00250251      -0.00110127 </v>
   <v>       0.49874187       0.50251627      -0.00111344 </v>
   <v>       0.16504892       0.16990217       0.06814529 </v>
   <v>       0.16499367       0.66996929       0.06814995 </v>
   <v>       0.66506700       0.16986601       0.06814354 </v>
   <v>       0.66503704       0.66996929       0.06814995 </v>
   <v>       0.33097982       0.33800809       0.13580430 </v>
   <v>       0.33099171       0.83801658       0.13580564 </v>
   <v>       0.83101209       0.33800809       0.13580430 </v>
   <v>       0.83095985       0.83808029       0.13580981 </v>
   <v>      -0.00259299       0.00523922       0.20394577 </v>
   <v>      -0.00268838       0.50537676       0.20393960 </v>
   <v>       0.49735377       0.00523922       0.20394577 </v>
   <v>       0.49737243       0.50525514       0.20392712 </v>
   <v>       0.16447578       0.17104844       0.27195669 </v>
   <v>       0.16468138       0.67084336       0.27194116 </v>
   <v>       0.66455088       0.17089823       0.27192730 </v>
   <v>       0.66447526       0.67084336       0.27194116 </v>
   <v>       0.33104484       0.33812373       0.34010907 </v>
   <v>       0.33088016       0.83823968       0.34010055 </v>
   <v>       0.83083144       0.33812373       0.34010907 </v>
   <v>       0.83094208       0.83811584       0.34006603 </v>
   <v>      -0.00286540       0.00561052       0.40773391 </v>
   <v>       0.99718231       0.50563538       0.40776305 </v>
   <v>       0.49725489       0.00561052       0.40773391 </v>
   <v>       0.49717523       0.50564954       0.40774229 </v>
   <v>       0.16425710       0.17148581       0.47690669 </v>
   <v>       0.16413899       0.67192927       0.47692098 </v>
   <v>       0.66407469       0.17185061       0.47686801 </v>
   <v>       0.66393174       0.67192927       0.47692098 </v>
   <v>       0.93219745       0.63560510       0.58913496 </v>
   <v>       0.88832094       0.72335813       0.56733693 </v>
  </varray>
 </structure>
</modeling>
