unknown system                          
           1
     5.133595    0.000000    0.000000
     2.566798    4.445824    0.000000
     0.000000    0.000000   29.670471
   Cu   H 
    32     2
Direct configuration=     1
   0.00000000  0.00000000  0.00000000
   1.00000000  0.50000000  0.00000000
   0.50000000  0.00000000  0.00000000
   0.50000000  0.50000000  0.00000000
   0.16666667  0.16666667  0.07063526
   0.16666667  0.66666667  0.07063526
   0.66666667  0.16666667  0.07063526
   0.66666667  0.66666667  0.07063526
   0.33333333  0.33333333  0.13847021
   0.33333333  0.83333333  0.13847021
   0.83333333  0.33333333  0.13847021
   0.83333333  0.83333333  0.13847021
   0.00000000  0.00000000  0.20667428
   1.00000000  0.50000000  0.20667428
   0.50000000  0.00000000  0.20667428
   0.50000000  0.50000000  0.20667428
   0.16666667  0.16666667  0.27488859
   0.16666667  0.66666667  0.27488859
   0.66666667  0.16666667  0.27488859
   0.66666667  0.66666667  0.27488859
   0.33333333  0.33333333  0.34319917
   0.33333333  0.83333333  0.34319917
   0.83333333  0.33333333  0.34319917
   0.83333333  0.83333333  0.34319917
   0.00000000  0.00000000  0.41105828
   1.00000000  0.50000000  0.41105828
   0.50000000  0.00000000  0.41105828
   0.50000000  0.50000000  0.41105828
   0.16666667  0.16666667  0.48054462
   0.16666667  0.66666667  0.48054462
   0.66666667  0.16666667  0.48054462
   0.66666667  0.66666667  0.48054462
   0.91666667  0.66666667  0.53425930
   0.83276771  0.83446458  0.53425930
Direct configuration=     2
   0.00019207  0.00011914  0.00024055
   0.00012066  0.49975868  0.00025780
   0.49968879  0.00011914  0.00024055
   0.49997713  0.50004574  0.00021778
   0.16662106  0.16675789  0.07042224
   0.16665786  0.66660689  0.07043399
   0.66665322  0.16669357  0.07040456
   0.66673526  0.66660689  0.07043399
   0.33345304  0.33324270  0.13846190
   0.33333337  0.83333325  0.13844564
   0.83330426  0.33324270  0.13846190
   0.83324827  0.83350346  0.13841767
   0.00011000  0.00011656  0.20670481
   0.00008942  0.49982115  0.20669724
   0.49977344  0.00011656  0.20670481
   0.50004907  0.49990187  0.20662092
   0.16670555  0.16658890  0.27484702
   0.16725365  0.66641450  0.27493546
   0.66639763  0.16720474  0.27488954
   0.66633185  0.66641450  0.27493546
   0.33354122  0.33317650  0.34323693
   0.33334980  0.83330039  0.34321044
   0.83328228  0.33317650  0.34323693
   0.83310933  0.83378134  0.34311155
  -0.00007149 -0.00026965  0.41119170
   0.99966878  0.50066244  0.41105033
   0.50034115 -0.00026965  0.41119170
   0.49991531  0.50016938  0.41136226
   0.16732301  0.16535398  0.48025585
   0.16988711  0.66574158  0.48021808
   0.66443397  0.17113205  0.48000876
   0.66437131  0.66574158  0.48021808
   0.92632170  0.64735660  0.53475842
   0.82393197  0.85213606  0.53457541
Direct configuration=     3
   0.00012175  0.00007552  0.00015249
   0.00007649  0.49984703  0.00016342
   0.49980272  0.00007552  0.00015249
   0.49998550  0.50002900  0.00013805
   0.16663775  0.16672449  0.07050023
   0.16666108  0.66662877  0.07050768
   0.66665814  0.16668372  0.07048902
   0.66671015  0.66662877  0.07050768
   0.33340921  0.33327588  0.13846494
   0.33333336  0.83333328  0.13845463
   0.83331490  0.33327588  0.13846494
   0.83327941  0.83344118  0.13843690
   0.00006973  0.00007389  0.20669363
   0.00005669  0.49988663  0.20668883
   0.49985639  0.00007389  0.20669363
   0.50003110  0.49993779  0.20664045
   0.16669131  0.16661737  0.27486224
   0.16703875  0.66650682  0.27491830
   0.66649612  0.16700775  0.27488919
   0.66645443  0.66650682  0.27491830
   0.33346511  0.33323392  0.34322311
   0.33334377  0.83331245  0.34320631
   0.83330097  0.33323392  0.34322311
   0.83319134  0.83361732  0.34314363
  -0.00004532 -0.00017093  0.41114285
   0.99979004  0.50041992  0.41105324
   0.50021625 -0.00017093  0.41114285
   0.49994631  0.50010737  0.41125097
   0.16708272  0.16583456  0.48036157
   0.16870811  0.66608025  0.48033763
   0.66525136  0.16949728  0.48020494
   0.66521164  0.66608025  0.48033763
   0.92278699  0.65442602  0.53457569
   0.82716674  0.84566653  0.53445968
Direct configuration=     4
   0.00011740  0.00007282  0.00014704
   0.00007375  0.49985249  0.00015758
   0.49980977  0.00007282  0.00014704
   0.49998602  0.50002796  0.00013312
   0.16663879  0.16672242  0.07050505
   0.16666128  0.66663013  0.07051224
   0.66665845  0.16668311  0.07049425
   0.66670859  0.66663013  0.07051224
   0.33340650  0.33327794  0.13846513
   0.33333336  0.83333328  0.13845519
   0.83331556  0.33327794  0.13846513
   0.83328134  0.83343732  0.13843809
   0.00006724  0.00007125  0.20669294
   0.00005466  0.49989068  0.20668831
   0.49986152  0.00007125  0.20669294
   0.50002999  0.49994002  0.20664166
   0.16669043  0.16661913  0.27486318
   0.16702546  0.66651253  0.27491724
   0.66650222  0.16699557  0.27488917
   0.66646201  0.66651253  0.27491724
   0.33346040  0.33323747  0.34322225
   0.33334340  0.83331320  0.34320606
   0.83330213  0.33323747  0.34322225
   0.83319641  0.83360718  0.34314561
  -0.00004370 -0.00016483  0.41113983
   0.99979754  0.50040492  0.41105342
   0.50020853 -0.00016483  0.41113983
   0.49994823  0.50010354  0.41124409
   0.16706786  0.16586429  0.48036811
   0.16863517  0.66610120  0.48034502
   0.66530193  0.16939614  0.48021707
   0.66526363  0.66610120  0.48034502
   0.92256831  0.65486337  0.53456439
   0.82736686  0.84526628  0.53445252
Direct configuration=     5
   0.00010201  0.00006327  0.00012776
   0.00006408  0.49987184  0.00013692
   0.49983472  0.00006327  0.00012776
   0.49998785  0.50002429  0.00011566
   0.16664244  0.16671511  0.07052213
   0.16666199  0.66663492  0.07052837
   0.66665952  0.16668095  0.07051274
   0.66670309  0.66663492  0.07052837
   0.33339691  0.33328520  0.13846580
   0.33333335  0.83333329  0.13845716
   0.83331789  0.33328520  0.13846580
   0.83328816  0.83342369  0.13844231
   0.00005842  0.00006190  0.20669050
   0.00004749  0.49990501  0.20668647
   0.49987968  0.00006190  0.20669050
   0.50002606  0.49994788  0.20664594
   0.16668732  0.16662537  0.27486651
   0.16697841  0.66653274  0.27491348
   0.66652378  0.16695243  0.27488909
   0.66648885  0.66653274  0.27491348
   0.33344374  0.33325004  0.34321922
   0.33334208  0.83331584  0.34320516
   0.83330622  0.33325004  0.34321922
   0.83321437  0.83357126  0.34315263
  -0.00003797 -0.00014321  0.41112914
   0.99982409  0.50035181  0.41105406
   0.50018118 -0.00014321  0.41112914
   0.49995502  0.50008996  0.41121972
   0.16701524  0.16596951  0.48039126
   0.16837701  0.66617536  0.48037120
   0.66548090  0.16903819  0.48026003
   0.66544763  0.66617536  0.48037120
   0.92179436  0.65641128  0.53452438
   0.82807514  0.84384973  0.53442718
Direct configuration=     6
   0.00010935  0.00006783  0.00013695
   0.00006869  0.49986261  0.00014677
   0.49982282  0.00006783  0.00013695
   0.49998698  0.50002604  0.00012399
   0.16664070  0.16671860  0.07051398
   0.16666165  0.66663263  0.07052068
   0.66665901  0.16668198  0.07050392
   0.66670572  0.66663263  0.07052068
   0.33340148  0.33328174  0.13846548
   0.33333336  0.83333329  0.13845622
   0.83331678  0.33328174  0.13846548
   0.83328490  0.83343019  0.13844030
   0.00006263  0.00006636  0.20669166
   0.00005091  0.49989818  0.20668735
   0.49987102  0.00006636  0.20669166
   0.50002793  0.49994413  0.20664390
   0.16668880  0.16662239  0.27486492
   0.16700085  0.66652310  0.27491527
   0.66651350  0.16697301  0.27488913
   0.66647605  0.66652310  0.27491527
   0.33345169  0.33324404  0.34322067
   0.33334271  0.83331458  0.34320559
   0.83330427  0.33324404  0.34322067
   0.83320580  0.83358839  0.34314928
  -0.00004070 -0.00015352  0.41113424
   0.99981143  0.50037714  0.41105375
   0.50019422 -0.00015352  0.41113424
   0.49995178  0.50009643  0.41123134
   0.16704034  0.16591933  0.48038022
   0.16850014  0.66613999  0.48035871
   0.66539554  0.16920891  0.48023954
   0.66535987  0.66613999  0.48035871
   0.92216350  0.65567300  0.53454346
   0.82773732  0.84452536  0.53443927
Direct configuration=     7
   0.00010722  0.00006651  0.00013428
   0.00006735  0.49986529  0.00014391
   0.49982628  0.00006651  0.00013428
   0.49998723  0.50002553  0.00012157
   0.16664121  0.16671759  0.07051635
   0.16666175  0.66663330  0.07052291
   0.66665916  0.16668168  0.07050648
   0.66670495  0.66663330  0.07052291
   0.33340015  0.33328274  0.13846557
   0.33333336  0.83333329  0.13845649
   0.83331710  0.33328274  0.13846557
   0.83328585  0.83342830  0.13844088
   0.00006140  0.00006506  0.20669132
   0.00004992  0.49990016  0.20668709
   0.49987353  0.00006506  0.20669132
   0.50002739  0.49994522  0.20664449
   0.16668837  0.16662326  0.27486538
   0.16699433  0.66652590  0.27491475
   0.66651648  0.16696703  0.27488912
   0.66647977  0.66652590  0.27491475
   0.33344938  0.33324578  0.34322025
   0.33334253  0.83331494  0.34320546
   0.83330483  0.33324578  0.34322025
   0.83320829  0.83358342  0.34315026
  -0.00003991 -0.00015053  0.41113276
   0.99981511  0.50036979  0.41105384
   0.50019044 -0.00015053  0.41113276
   0.49995272  0.50009455  0.41122797
   0.16703305  0.16593390  0.48038342
   0.16846439  0.66615026  0.48036234
   0.66542033  0.16915935  0.48024549
   0.66538535  0.66615026  0.48036234
   0.92205633  0.65588734  0.53453792
   0.82783540  0.84432920  0.53443576
Direct configuration=     8
   0.00010879  0.00006748  0.00013625
   0.00006834  0.49986332  0.00014602
   0.49982373  0.00006748  0.00013625
   0.49998705  0.50002591  0.00012335
   0.16664083  0.16671833  0.07051460
   0.16666168  0.66663281  0.07052126
   0.66665905  0.16668190  0.07050459
   0.66670552  0.66663281  0.07052126
   0.33340113  0.33328200  0.13846550
   0.33333336  0.83333329  0.13845629
   0.83331687  0.33328200  0.13846550
   0.83328515  0.83342970  0.13844045
   0.00006231  0.00006602  0.20669157
   0.00005065  0.49989870  0.20668728
   0.49987168  0.00006602  0.20669157
   0.50002779  0.49994442  0.20664405
   0.16668869  0.16662262  0.27486504
   0.16699914  0.66652383  0.27491513
   0.66651428  0.16697144  0.27488913
   0.66647703  0.66652383  0.27491513
   0.33345108  0.33324450  0.34322056
   0.33334266  0.83331467  0.34320555
   0.83330442  0.33324450  0.34322056
   0.83320646  0.83358709  0.34314954
  -0.00004050 -0.00015273  0.41113385
   0.99981239  0.50037521  0.41105377
   0.50019323 -0.00015273  0.41113385
   0.49995203  0.50009594  0.41123045
   0.16703843  0.16592315  0.48038106
   0.16849076  0.66614269  0.48035966
   0.66540205  0.16919591  0.48024110
   0.66536655  0.66614269  0.48035966
   0.92213538  0.65572924  0.53454201
   0.82776306  0.84447389  0.53443835
Direct configuration=     9
   0.00010801  0.00006699  0.00013527
   0.00006785  0.49986430  0.00014497
   0.49982500  0.00006699  0.00013527
   0.49998714  0.50002572  0.00012246
   0.16664102  0.16671796  0.07051547
   0.16666171  0.66663305  0.07052209
   0.66665910  0.16668179  0.07050554
   0.66670524  0.66663305  0.07052209
   0.33340064  0.33328237  0.13846554
   0.33333336  0.83333329  0.13845639
   0.83331699  0.33328237  0.13846554
   0.83328550  0.83342900  0.13844067
   0.00006185  0.00006554  0.20669145
   0.00005028  0.49989943  0.20668719
   0.49987260  0.00006554  0.20669145
   0.50002759  0.49994482  0.20664427
   0.16668853  0.16662294  0.27486521
   0.16699674  0.66652487  0.27491494
   0.66651538  0.16696924  0.27488912
   0.66647840  0.66652487  0.27491494
   0.33345023  0.33324514  0.34322040
   0.33334260  0.83331481  0.34320551
   0.83330463  0.33324514  0.34322040
   0.83320737  0.83358525  0.34314990
  -0.00004020 -0.00015163  0.41113330
   0.99981375  0.50037250  0.41105381
   0.50019183 -0.00015163  0.41113330
   0.49995238  0.50009525  0.41122921
   0.16703574  0.16592852  0.48038224
   0.16847758  0.66614647  0.48036100
   0.66541119  0.16917763  0.48024330
   0.66537595  0.66614647  0.48036100
   0.92209585  0.65580829  0.53453996
   0.82779923  0.84440155  0.53443706
Direct configuration=    10
   0.00027738  0.00015946  0.00033844
   0.00016493  0.49967014  0.00036638
   0.49956317  0.00015946  0.00033844
   0.49996942  0.50006115  0.00030222
   0.16659731  0.16680537  0.07035187
   0.16664406  0.66657438  0.07036555
   0.66665050  0.16669900  0.07031943
   0.66678156  0.66657438  0.07036555
   0.33349267  0.33320587  0.13843815
   0.33333570  0.83332861  0.13841310
   0.83330146  0.33320587  0.13843815
   0.83321062  0.83357876  0.13838210
   0.00014375  0.00013075  0.20672325
   0.00009821  0.49980358  0.20670985
   0.49972550  0.00013075  0.20672325
   0.50007645  0.49984710  0.20660067
   0.16671738  0.16656525  0.27484324
   0.16748145  0.66628650  0.27495652
   0.66629098  0.16741804  0.27488270
   0.66623205  0.66628650  0.27495652
   0.33363549  0.33311140  0.34327069
   0.33338022  0.83323955  0.34322842
   0.83325311  0.33311140  0.34327069
   0.83299221  0.83401559  0.34308320
  -0.00007157 -0.00036858  0.41122587
   0.99949963  0.50100073  0.41101755
   0.50044016 -0.00036858  0.41122587
   0.49984708  0.50030585  0.41144909
   0.16747852  0.16504296  0.48014376
   0.17023500  0.66559271  0.48021734
   0.66384029  0.17231941  0.47988059
   0.66417228  0.66559271  0.48021734
   0.92217720  0.65564561  0.53480776
   0.82846688  0.84306624  0.53454669
Direct configuration=    11
   0.00041310  0.00023355  0.00050125
   0.00024273  0.49951455  0.00054380
   0.49935335  0.00023355  0.00050125
   0.49995523  0.50008955  0.00044626
   0.16656229  0.16687541  0.07022077
   0.16662991  0.66652737  0.07024011
   0.66664361  0.16671279  0.07017030
   0.66684272  0.66652737  0.07024011
   0.33356641  0.33314457  0.13841620
   0.33333757  0.83332486  0.13837841
   0.83328903  0.33314457  0.13841620
   0.83315062  0.83369877  0.13833518
   0.00020937  0.00018301  0.20674874
   0.00013662  0.49972677  0.20672802
   0.49960762  0.00018301  0.20674874
   0.50011560  0.49976879  0.20656574
   0.16674049  0.16651902  0.27482563
   0.16786986  0.66609549  0.27498984
   0.66611116  0.16777768  0.27487755
   0.66603466  0.66609549  0.27498984
   0.33378394  0.33300424  0.34331098
   0.33341037  0.83317925  0.34324678
   0.83321183  0.33300424  0.34331098
   0.83281979  0.83436042  0.34302976
  -0.00009671 -0.00054243  0.41130005
   0.99924793  0.50150415  0.41098849
   0.50063914 -0.00054243  0.41130005
   0.49976270  0.50047460  0.41162528
   0.16783333  0.16433333  0.47995267
   0.17164326  0.66514897  0.48010223
   0.66258151  0.17483698  0.47958995
   0.66320776  0.66514897  0.48010223
   0.92224238  0.65551524  0.53502235
   0.82900188  0.84199623  0.53463454
Direct configuration=    12
   0.00045906  0.00025864  0.00055638
   0.00026907  0.49946186  0.00060388
   0.49928230  0.00025864  0.00055638
   0.49995042  0.50009916  0.00049503
   0.16655043  0.16689913  0.07017638
   0.16662512  0.66651145  0.07019763
   0.66664127  0.16671746  0.07011980
   0.66686343  0.66651145  0.07019763
   0.33359138  0.33312381  0.13840877
   0.33333821  0.83332359  0.13836667
   0.83328482  0.33312381  0.13840877
   0.83313030  0.83373940  0.13831928
   0.00023159  0.00020070  0.20675737
   0.00014962  0.49970076  0.20673417
   0.49956770  0.00020070  0.20675737
   0.50012886  0.49974228  0.20655390
   0.16674832  0.16650336  0.27481967
   0.16800138  0.66603081  0.27500112
   0.66605027  0.16789946  0.27487581
   0.66596781  0.66603081  0.27500112
   0.33383421  0.33296795  0.34332462
   0.33342058  0.83315883  0.34325300
   0.83319785  0.33296795  0.34332462
   0.83276140  0.83447720  0.34301166
  -0.00010522 -0.00060131  0.41132517
   0.99916269  0.50167462  0.41097865
   0.50070653 -0.00060131  0.41132517
   0.49973413  0.50053175  0.41168494
   0.16795348  0.16409303  0.47988796
   0.17212014  0.66499871  0.48006324
   0.66215525  0.17568951  0.47949153
   0.66288115  0.66499871  0.48006324
   0.92226445  0.65547110  0.53509502
   0.82918305  0.84163390  0.53466429
Direct configuration=    13
   0.00055098  0.00030882  0.00066664
   0.00032176  0.49935649  0.00072405
   0.49914020  0.00030882  0.00066664
   0.49994080  0.50011839  0.00059258
   0.16652671  0.16694657  0.07008759
   0.16661554  0.66647961  0.07011267
   0.66663660  0.16672679  0.07001880
   0.66690485  0.66647961  0.07011267
   0.33364132  0.33308229  0.13839391
   0.33333948  0.83332105  0.13834317
   0.83327639  0.33308229  0.13839391
   0.83308966  0.83382068  0.13828750
   0.00027604  0.00023609  0.20677463
   0.00017563  0.49964874  0.20674647
   0.49948787  0.00023609  0.20677463
   0.50015538  0.49968924  0.20653024
   0.16676397  0.16647205  0.27480774
   0.16826444  0.66590144  0.27502369
   0.66592849  0.16814303  0.27487232
   0.66583412  0.66590144  0.27502369
   0.33393474  0.33289537  0.34335191
   0.33344101  0.83311799  0.34326543
   0.83316989  0.33289537  0.34335191
   0.83264463  0.83471074  0.34297547
  -0.00012225 -0.00071905  0.41137541
   0.99899222  0.50201556  0.41095897
   0.50084129 -0.00071905  0.41137541
   0.49967698  0.50064604  0.41180427
   0.16819378  0.16361243  0.47975854
   0.17307390  0.66469818  0.47998528
   0.66130272  0.17739456  0.47929469
   0.66222792  0.66469818  0.47998528
   0.92230860  0.65538281  0.53524036
   0.82954539  0.84090922  0.53472379
Direct configuration=    14
   0.00049930  0.00028061  0.00060465
   0.00029213  0.49941573  0.00065649
   0.49922009  0.00028061  0.00060465
   0.49994621  0.50010758  0.00053774
   0.16654005  0.16691990  0.07013751
   0.16662092  0.66649751  0.07016044
   0.66663923  0.16672154  0.07007558
   0.66688157  0.66649751  0.07016044
   0.33361324  0.33310563  0.13840226
   0.33333876  0.83332248  0.13835638
   0.83328113  0.33310563  0.13840226
   0.83311251  0.83377499  0.13830537
   0.00025105  0.00021620  0.20676493
   0.00016101  0.49967798  0.20673955
   0.49953275  0.00021620  0.20676493
   0.50014047  0.49971906  0.20654355
   0.16675517  0.16648966  0.27481445
   0.16811655  0.66597417  0.27501100
   0.66599696  0.16800609  0.27487428
   0.66590928  0.66597417  0.27501100
   0.33387822  0.33293617  0.34333657
   0.33342952  0.83314095  0.34325844
   0.83318561  0.33293617  0.34333657
   0.83271028  0.83457944  0.34299582
  -0.00011268 -0.00065285  0.41134717
   0.99908806  0.50182388  0.41097004
   0.50076553 -0.00065285  0.41134717
   0.49970911  0.50058179  0.41173718
   0.16805868  0.16388263  0.47983130
   0.17253769  0.66486714  0.48002911
   0.66178202  0.17643597  0.47940535
   0.66259517  0.66486714  0.48002911
   0.92228378  0.65543245  0.53515865
   0.82934168  0.84131664  0.53469034
Direct configuration=    15
   0.00055975  0.00029271  0.00071778
   0.00029171  0.49941658  0.00078389
   0.49914755  0.00029271  0.00071778
   0.49993103  0.50013794  0.00063226
   0.16654154  0.16691692  0.07016763
   0.16663379  0.66649351  0.07016905
   0.66663808  0.16672383  0.07005598
   0.66687271  0.66649351  0.07016905
   0.33356737  0.33308016  0.13828127
   0.33332922  0.83334156  0.13823347
   0.83335247  0.33308016  0.13828127
   0.83309525  0.83380951  0.13820424
   0.00028186  0.00006491  0.20676538
   0.00004544  0.49990911  0.20674355
   0.49965322  0.00006491  0.20676538
   0.50013848  0.49972304  0.20649800
   0.16674366  0.16651268  0.27486425
   0.16812325  0.66590718  0.27502536
   0.66598218  0.16803563  0.27486055
   0.66596957  0.66590718  0.27502536
   0.33393410  0.33293897  0.34343706
   0.33349028  0.83301945  0.34337047
   0.83312692  0.33293897  0.34343706
   0.83256110  0.83487779  0.34297991
  -0.00020991 -0.00073483  0.41128265
   0.99883600  0.50232800  0.41090719
   0.50094474 -0.00073483  0.41128265
   0.49952024  0.50095952  0.41154301
   0.16813670  0.16372660  0.47962990
   0.17174945  0.66527912  0.47998527
   0.66145662  0.17708676  0.47919652
   0.66297144  0.66527912  0.47998527
   0.92172291  0.65655417  0.53553404
   0.83096232  0.83807535  0.53486776
Direct configuration=    16
   0.00059751  0.00030026  0.00078844
   0.00029144  0.49941712  0.00086347
   0.49910223  0.00030026  0.00078844
   0.49992155  0.50015690  0.00069130
   0.16654247  0.16691505  0.07018645
   0.16664182  0.66649101  0.07017442
   0.66663737  0.16672526  0.07004373
   0.66686717  0.66649101  0.07017442
   0.33353872  0.33306425  0.13820569
   0.33332326  0.83335348  0.13815669
   0.83339703  0.33306425  0.13820569
   0.83308446  0.83383107  0.13814107
   0.00030110 -0.00002958  0.20676567
  -0.00002674  0.50005348  0.20674605
   0.49972848 -0.00002958  0.20676567
   0.50013724  0.49972552  0.20646955
   0.16673647  0.16652706  0.27489535
   0.16812744  0.66586534  0.27503433
   0.66597296  0.16805409  0.27485198
   0.66600722  0.66586534  0.27503433
   0.33396901  0.33294072  0.34349982
   0.33352822  0.83294355  0.34344044
   0.83309027  0.33294072  0.34349982
   0.83246792  0.83506415  0.34296998
  -0.00027065 -0.00078604  0.41124236
   0.99867856  0.50264289  0.41086793
   0.50105668 -0.00078604  0.41124236
   0.49940227  0.50119546  0.41142173
   0.16818543  0.16362914  0.47950410
   0.17125709  0.66553645  0.47995789
   0.66125337  0.17749326  0.47906607
   0.66320646  0.66553645  0.47995789
   0.92137259  0.65725482  0.53576852
   0.83197460  0.83605080  0.53497858
Direct configuration=    17
   0.00061051  0.00029232  0.00085292
   0.00026363  0.49947275  0.00093836
   0.49909717  0.00029232  0.00085292
   0.49990930  0.50018140  0.00074287
   0.16655503  0.16688993  0.07023293
   0.16665557  0.66650739  0.07020481
   0.66663714  0.16672571  0.07005864
   0.66683704  0.66650739  0.07020481
   0.33349127  0.33305305  0.13814190
   0.33331620  0.83336759  0.13809503
   0.83345569  0.33305305  0.13814190
   0.83307538  0.83384923  0.13809139
   0.00034358 -0.00011822  0.20673682
  -0.00009092  0.50018184  0.20672369
   0.49977464 -0.00011822  0.20673682
   0.50013416  0.49973167  0.20641899
   0.16673583  0.16652834  0.27495006
   0.16808470  0.66585415  0.27504471
   0.66597958  0.16804084  0.27484614
   0.66606114  0.66585415  0.27504471
   0.33390291  0.33297207  0.34353614
   0.33352743  0.83294515  0.34348737
   0.83312502  0.33297207  0.34353614
   0.83238904  0.83522193  0.34294139
  -0.00038403 -0.00073813  0.41116255
   0.99853864  0.50292272  0.41082681
   0.50112216 -0.00073813  0.41116255
   0.49922332  0.50155336  0.41124377
   0.16817500  0.16364999  0.47934310
   0.17041393  0.66603253  0.47989592
   0.66114531  0.17770939  0.47889802
   0.66355354  0.66603253  0.47989592
   0.92207251  0.65585497  0.53620495
   0.83236960  0.83526079  0.53520522
Direct configuration=    18
   0.00064951  0.00026849  0.00104635
   0.00018018  0.49963964  0.00116303
   0.49908200  0.00026849  0.00104635
   0.49987256  0.50025489  0.00089758
   0.16659271  0.16681458  0.07037236
   0.16669681  0.66655652  0.07029595
   0.66663647  0.16672707  0.07010335
   0.66674666  0.66655652  0.07029595
   0.33334890  0.33301944  0.13795052
   0.33329504  0.83340992  0.13791003
   0.83363165  0.33301944  0.13795052
   0.83304815  0.83390371  0.13794234
   0.00047100 -0.00038413  0.20665026
  -0.00028345  0.50056689  0.20665659
   0.49991314 -0.00038413  0.20665026
   0.50012494  0.49975013  0.20626731
   0.16673390  0.16653219  0.27511419
   0.16795650  0.66582059  0.27507586
   0.66599946  0.16800108  0.27482861
   0.66622291  0.66582059  0.27507586
   0.33370461  0.33306611  0.34364511
   0.33352504  0.83294993  0.34362814
   0.83322928  0.33306611  0.34364511
   0.83215237  0.83569526  0.34285563
  -0.00072419 -0.00059441  0.41092311
   0.99811889  0.50376222  0.41070345
   0.50131860 -0.00059441  0.41092311
   0.49868647  0.50262706  0.41070990
   0.16814373  0.16371254  0.47886007
   0.16788444  0.66752079  0.47971004
   0.66082111  0.17835777  0.47839388
   0.66459477  0.66752079  0.47971004
   0.92417228  0.65165544  0.53751424
   0.83355461  0.83289078  0.53588516
Direct configuration=    19
   0.00066153  0.00026115  0.00110598
   0.00015446  0.49969109  0.00123230
   0.49907732  0.00026115  0.00110598
   0.49986123  0.50027754  0.00094528
   0.16660433  0.16679135  0.07041535
   0.16670953  0.66657167  0.07032405
   0.66663626  0.16672749  0.07011714
   0.66671880  0.66657167  0.07032405
   0.33330501  0.33300908  0.13789151
   0.33328851  0.83342297  0.13785299
   0.83368590  0.33300908  0.13789151
   0.83303975  0.83392050  0.13789639
   0.00051028 -0.00046612  0.20662357
  -0.00034280  0.50068561  0.20663590
   0.49995584 -0.00046612  0.20662357
   0.50012209  0.49975582  0.20622055
   0.16673331  0.16653338  0.27516480
   0.16791698  0.66581024  0.27508547
   0.66600559  0.16798883  0.27482321
   0.66627278  0.66581024  0.27508547
   0.33364347  0.33309510  0.34367870
   0.33352430  0.83295140  0.34367154
   0.83326143  0.33309510  0.34367870
   0.83207940  0.83584119  0.34282919
  -0.00082907 -0.00055010  0.41084929
   0.99798948  0.50402104  0.41066541
   0.50137917 -0.00055010  0.41084929
   0.49852095  0.50295810  0.41054530
   0.16813409  0.16373183  0.47871114
   0.16710456  0.66797964  0.47965273
   0.66072116  0.17855768  0.47823845
   0.66491580  0.66797964  0.47965273
   0.92481967  0.65036066  0.53791791
   0.83391996  0.83216007  0.53609480
Direct configuration=    20
   0.00065702  0.00026012  0.00115723
   0.00012361  0.49975279  0.00129355
   0.49908286  0.00026012  0.00115723
   0.49985130  0.50029740  0.00098646
   0.16661189  0.16677622  0.07042738
   0.16671783  0.66658264  0.07033812
   0.66662968  0.16674063  0.07012858
   0.66669953  0.66658264  0.07033812
   0.33330397  0.33300246  0.13790348
   0.33329794  0.83340412  0.13786761
   0.83369357  0.33300246  0.13790348
   0.83302086  0.83395828  0.13790479
   0.00057731 -0.00042609  0.20659015
  -0.00030496  0.50060992  0.20660697
   0.49984878 -0.00042609  0.20659015
   0.50014393  0.49971214  0.20617873
   0.16675834  0.16648331  0.27517942
   0.16796935  0.66579836  0.27507715
   0.66596560  0.16806881  0.27480391
   0.66623229  0.66579836  0.27507715
   0.33347724  0.33315257  0.34362191
   0.33344357  0.83311286  0.34360048
   0.83337019  0.33315257  0.34362191
   0.83204453  0.83591095  0.34276867
  -0.00097252 -0.00033962  0.41076520
   0.99792754  0.50414492  0.41062500
   0.50131214 -0.00033962  0.41076520
   0.49833628  0.50332744  0.41049355
   0.16807470  0.16385059  0.47856373
   0.16666728  0.66844265  0.47955106
   0.66051290  0.17897419  0.47806527
   0.66489007  0.66844265  0.47955106
   0.92527936  0.64944129  0.53847299
   0.83485708  0.83028583  0.53642458
Direct configuration=    21
   0.00064348  0.00025705  0.00131095
   0.00003106  0.49993788  0.00147729
   0.49909947  0.00025705  0.00131095
   0.49982153  0.50035695  0.00111001
   0.16663458  0.16673084  0.07046348
   0.16674275  0.66661554  0.07038031
   0.66660996  0.16678007  0.07016291
   0.66664171  0.66661554  0.07038031
   0.33330082  0.33298259  0.13793937
   0.33332622  0.83334757  0.13791148
   0.83371659  0.33298259  0.13793937
   0.83296419  0.83407162  0.13792998
   0.00077837 -0.00030599  0.20648989
  -0.00019143  0.50038285  0.20652018
   0.49952762 -0.00030599  0.20648989
   0.50020946  0.49958109  0.20605325
   0.16683344  0.16633311  0.27522328
   0.16812646  0.66576271  0.27505222
   0.66584562  0.16830875  0.27474602
   0.66611083  0.66576271  0.27505222
   0.33297854  0.33332498  0.34345154
   0.33320137  0.83359726  0.34338730
   0.83369649  0.33332498  0.34345154
   0.83193990  0.83612021  0.34258708
  -0.00140288  0.00029182  0.41051296
   0.99774172  0.50451656  0.41050377
   0.50111106  0.00029182  0.41051296
   0.49778226  0.50443547  0.41033831
   0.16789655  0.16420689  0.47812147
   0.16535544  0.66983169  0.47924605
   0.65988814  0.18022373  0.47754573
   0.66481287  0.66983169  0.47924605
   0.92665842  0.64668316  0.54013821
   0.83766844  0.82466311  0.53741393
Direct configuration=    22
   0.00061640  0.00025091  0.00161840
  -0.00015404  0.50030808  0.00184479
   0.49913270  0.00025091  0.00161840
   0.49976197  0.50047605  0.00135711
   0.16667997  0.16664007  0.07053568
   0.16679257  0.66668135  0.07046470
   0.66657052  0.16685896  0.07023157
   0.66652608  0.66668135  0.07046470
   0.33329454  0.33294285  0.13801117
   0.33338277  0.83323446  0.13799921
   0.83376261  0.33294285  0.13801117
   0.83285085  0.83429829  0.13798037
   0.00118051 -0.00006580  0.20628937
   0.00003564  0.49992872  0.20634659
   0.49888529 -0.00006580  0.20628937
   0.50034050  0.49931900  0.20580231
   0.16698364  0.16603271  0.27531101
   0.16844068  0.66569142  0.27500234
   0.66560568  0.16878864  0.27463023
   0.66586790  0.66569142  0.27500234
   0.33198113  0.33366979  0.34311079
   0.33271698  0.83456605  0.34296095
   0.83434907  0.33366979  0.34311079
   0.83173064  0.83653873  0.34222392
  -0.00226360  0.00155469  0.41000847
   0.99737008  0.50525983  0.41026129
   0.50070891  0.00155469  0.41000847
   0.49667423  0.50665154  0.41002781
   0.16754026  0.16491949  0.47723695
   0.16273176  0.67260976  0.47863604
   0.65863860  0.18272279  0.47650665
   0.66465848  0.67260976  0.47863604
   0.92941655  0.64116690  0.54346866
   0.84329117  0.81341767  0.53939263
Direct configuration=    23
   0.00056224  0.00023862  0.00223329
  -0.00052423  0.50104847  0.00257979
   0.49919914  0.00023862  0.00223329
   0.49964287  0.50071426  0.00185131
   0.16677073  0.16645853  0.07068007
   0.16689222  0.66681296  0.07063347
   0.66649164  0.16701672  0.07036888
   0.66629482  0.66681296  0.07063347
   0.33328196  0.33286337  0.13815476
   0.33349587  0.83300825  0.13817468
   0.83385466  0.33286337  0.13815476
   0.83262418  0.83475164  0.13808114
   0.00198479  0.00041458  0.20588833
   0.00048977  0.49902045  0.20599942
   0.49760063  0.00041458  0.20588833
   0.50060259  0.49879482  0.20530042
   0.16728405  0.16543191  0.27548647
   0.16906912  0.66554883  0.27490258
   0.66512580  0.16974841  0.27439866