  28  28   0   0
  0.2247639E+02  0.5133596E-09  0.5133596E-09  0.2757469E-08  0.5000000E-15
  1.000000000000000E-004
  CAR 
 unknown system                          
     14.24815588     -9.52009659  301      1.68206957      1.00000000
     -9.520  0.0000E+00  0.0000E+00  0.0000E+00  0.0000E+00
     -9.441  0.0000E+00  0.0000E+00  0.0000E+00  0.0000E+00
     -9.362  0.0000E+00  0.0000E+00  0.0000E+00  0.0000E+00
     -9.282  0.0000E+00  0.0000E+00  0.0000E+00  0.0000E+00
     -9.203  0.0000E+00  0.0000E+00  0.0000E+00  0.0000E+00
     -9.124 -0.4668E-30 -0.4668E-30 -0.3698E-31 -0.3698E-31
     -9.045 -0.2174E-27 -0.2174E-27 -0.1726E-28 -0.1726E-28
     -8.966 -0.7390E-25 -0.7390E-25 -0.5872E-26 -0.5872E-26
     -8.886 -0.1829E-22 -0.1829E-22 -0.1455E-23 -0.1455E-23
     -8.807 -0.3295E-20 -0.3295E-20 -0.2625E-21 -0.2625E-21
     -8.728 -0.4318E-18 -0.4318E-18 -0.3447E-19 -0.3447E-19
     -8.649 -0.3987E-16 -0.3987E-16 -0.3193E-17 -0.3193E-17
     -8.569 -0.2744E-14 -0.2744E-14 -0.2206E-15 -0.2206E-15
     -8.490 -0.1368E-12 -0.1368E-12 -0.1106E-13 -0.1106E-13
     -8.411 -0.4932E-11 -0.4932E-11 -0.4018E-12 -0.4018E-12
     -8.332 -0.1282E-09 -0.1282E-09 -0.1056E-10 -0.1056E-10
     -8.252 -0.2391E-08 -0.2391E-08 -0.1999E-09 -0.1999E-09
     -8.173 -0.3181E-07 -0.3181E-07 -0.2720E-08 -0.2720E-08
     -8.094 -0.2990E-06 -0.2990E-06 -0.2641E-07 -0.2641E-07
     -8.015 -0.1951E-05 -0.1951E-05 -0.1810E-06 -0.1810E-06
     -7.936 -0.8548E-05 -0.8548E-05 -0.8583E-06 -0.8583E-06
     -7.856 -0.2314E-04 -0.2314E-04 -0.2691E-05 -0.2691E-05
     -7.777 -0.2729E-04 -0.2729E-04 -0.4853E-05 -0.4853E-05
     -7.698  0.4474E-04  0.4474E-04 -0.1309E-05 -0.1309E-05
     -7.619  0.2512E-03  0.2512E-03  0.1859E-04  0.1859E-04
     -7.539  0.4984E-03  0.4984E-03  0.5808E-04  0.5808E-04
     -7.460  0.5612E-03  0.5612E-03  0.1025E-03  0.1025E-03
     -7.381  0.3652E-03  0.3652E-03  0.1315E-03  0.1315E-03
     -7.302  0.9971E-04  0.9971E-04  0.1394E-03  0.1394E-03
     -7.222 -0.1459E-04 -0.1459E-04  0.1382E-03  0.1382E-03
     -7.143  0.9224E-04  0.9224E-04  0.1455E-03  0.1455E-03
     -7.064  0.3176E-03  0.3176E-03  0.1707E-03  0.1707E-03
     -6.985  0.4208E-03  0.4208E-03  0.2040E-03  0.2040E-03
     -6.906  0.3347E-03  0.3347E-03  0.2306E-03  0.2306E-03
     -6.826  0.5427E-03  0.5427E-03  0.2736E-03  0.2736E-03
     -6.747  0.1602E-02  0.1602E-02  0.4004E-03  0.4004E-03
     -6.668  0.2995E-02  0.2995E-02  0.6377E-03  0.6377E-03
     -6.589  0.3303E-02  0.3303E-02  0.8994E-03  0.8994E-03
     -6.509  0.2074E-02  0.2074E-02  0.1064E-02  0.1064E-02
     -6.430  0.5383E-03  0.5383E-03  0.1106E-02  0.1106E-02
     -6.351  0.1616E-03  0.1616E-03  0.1119E-02  0.1119E-02
     -6.272  0.1361E-02  0.1361E-02  0.1227E-02  0.1227E-02
     -6.193  0.3197E-02  0.3197E-02  0.1480E-02  0.1480E-02
     -6.113  0.3948E-02  0.3948E-02  0.1793E-02  0.1793E-02
     -6.034  0.2880E-02  0.2880E-02  0.2021E-02  0.2021E-02
     -5.955  0.1118E-02  0.1118E-02  0.2110E-02  0.2110E-02
     -5.876  0.2117E-04  0.2116E-04  0.2111E-02  0.2111E-02
     -5.796 -0.2628E-03 -0.2628E-03  0.2091E-02  0.2091E-02
     -5.717 -0.2667E-03 -0.2667E-03  0.2069E-02  0.2069E-02
     -5.638 -0.1978E-03 -0.1978E-03  0.2054E-02  0.2054E-02
     -5.559  0.2974E-03  0.2974E-03  0.2077E-02  0.2077E-02
     -5.479  0.1547E-02  0.1547E-02  0.2200E-02  0.2200E-02
     -5.400  0.2953E-02  0.2953E-02  0.2434E-02  0.2434E-02
     -5.321  0.3372E-02  0.3372E-02  0.2701E-02  0.2701E-02
     -5.242  0.2871E-02  0.2871E-02  0.2929E-02  0.2929E-02
     -5.163  0.2766E-02  0.2766E-02  0.3148E-02  0.3148E-02
     -5.083  0.3345E-02  0.3345E-02  0.3413E-02  0.3413E-02
     -5.004  0.3299E-02  0.3299E-02  0.3674E-02  0.3674E-02
     -4.925  0.2000E-02  0.2000E-02  0.3833E-02  0.3833E-02
     -4.846  0.6531E-03  0.6531E-03  0.3884E-02  0.3884E-02
     -4.766  0.6756E-03  0.6756E-03  0.3938E-02  0.3938E-02
     -4.687  0.2106E-02  0.2106E-02  0.4105E-02  0.4105E-02
     -4.608  0.4082E-02  0.4082E-02  0.4428E-02  0.4428E-02
     -4.529  0.6030E-02  0.6030E-02  0.4906E-02  0.4906E-02
     -4.450  0.7264E-02  0.7264E-02  0.5481E-02  0.5481E-02
     -4.370  0.6566E-02  0.6566E-02  0.6002E-02  0.6002E-02
     -4.291  0.4277E-02  0.4277E-02  0.6340E-02  0.6340E-02
     -4.212  0.3009E-02  0.3009E-02  0.6579E-02  0.6579E-02
     -4.133  0.4230E-02  0.4230E-02  0.6914E-02  0.6914E-02
     -4.053  0.6050E-02  0.6050E-02  0.7393E-02  0.7393E-02
     -3.974  0.5762E-02  0.5762E-02  0.7850E-02  0.7850E-02
     -3.895  0.3309E-02  0.3309E-02  0.8112E-02  0.8112E-02
     -3.816  0.1150E-02  0.1150E-02  0.8203E-02  0.8203E-02
     -3.736  0.1368E-02  0.1368E-02  0.8311E-02  0.8311E-02
     -3.657  0.3654E-02  0.3654E-02  0.8601E-02  0.8601E-02
     -3.578  0.5810E-02  0.5810E-02  0.9061E-02  0.9061E-02
     -3.499  0.6178E-02  0.6178E-02  0.9551E-02  0.9551E-02
     -3.420  0.5612E-02  0.5612E-02  0.9995E-02  0.9995E-02
     -3.340  0.6249E-02  0.6249E-02  0.1049E-01  0.1049E-01
     -3.261  0.8783E-02  0.8783E-02  0.1119E-01  0.1119E-01
     -3.182  0.1211E-01  0.1211E-01  0.1215E-01  0.1215E-01
     -3.103  0.1517E-01  0.1517E-01  0.1335E-01  0.1335E-01
     -3.023  0.1847E-01  0.1847E-01  0.1481E-01  0.1481E-01
     -2.944  0.2306E-01  0.2306E-01  0.1664E-01  0.1664E-01
     -2.865  0.2730E-01  0.2730E-01  0.1880E-01  0.1880E-01
     -2.786  0.2776E-01  0.2776E-01  0.2100E-01  0.2100E-01
     -2.707  0.2420E-01  0.2420E-01  0.2292E-01  0.2292E-01
     -2.627  0.2062E-01  0.2062E-01  0.2455E-01  0.2455E-01
     -2.548  0.2117E-01  0.2117E-01  0.2623E-01  0.2623E-01
     -2.469  0.2662E-01  0.2662E-01  0.2834E-01  0.2834E-01
     -2.390  0.3425E-01  0.3425E-01  0.3105E-01  0.3105E-01
     -2.310  0.4002E-01  0.4002E-01  0.3422E-01  0.3422E-01
     -2.231  0.4146E-01  0.4146E-01  0.3751E-01  0.3751E-01
     -2.152  0.3925E-01  0.3925E-01  0.4062E-01  0.4062E-01
     -2.073  0.3569E-01  0.3569E-01  0.4344E-01  0.4344E-01
     -1.993  0.3260E-01  0.3260E-01  0.4603E-01  0.4603E-01
     -1.914  0.3133E-01  0.3133E-01  0.4851E-01  0.4851E-01
     -1.835  0.3264E-01  0.3264E-01  0.5109E-01  0.5109E-01
     -1.756  0.3668E-01  0.3668E-01  0.5400E-01  0.5400E-01
     -1.677  0.4312E-01  0.4312E-01  0.5742E-01  0.5742E-01
     -1.597  0.4958E-01  0.4958E-01  0.6134E-01  0.6134E-01
     -1.518  0.5287E-01  0.5287E-01  0.6553E-01  0.6553E-01
     -1.439  0.5416E-01  0.5416E-01  0.6982E-01  0.6982E-01
     -1.360  0.5790E-01  0.5790E-01  0.7441E-01  0.7441E-01
     -1.280  0.6450E-01  0.6450E-01  0.7952E-01  0.7952E-01
     -1.201  0.6990E-01  0.6990E-01  0.8506E-01  0.8506E-01
     -1.122  0.7114E-01  0.7114E-01  0.9070E-01  0.9070E-01
     -1.043  0.6810E-01  0.6810E-01  0.9609E-01  0.9609E-01
     -0.964  0.6297E-01  0.6297E-01  0.1011E+00  0.1011E+00
     -0.884  0.5982E-01  0.5982E-01  0.1058E+00  0.1058E+00
     -0.805  0.6057E-01  0.6057E-01  0.1106E+00  0.1106E+00
     -0.726  0.6212E-01  0.6212E-01  0.1155E+00  0.1155E+00
     -0.647  0.6087E-01  0.6087E-01  0.1204E+00  0.1204E+00
     -0.567  0.5773E-01  0.5773E-01  0.1249E+00  0.1249E+00
     -0.488  0.5520E-01  0.5520E-01  0.1293E+00  0.1293E+00
     -0.409  0.5422E-01  0.5422E-01  0.1336E+00  0.1336E+00
     -0.330  0.5674E-01  0.5674E-01  0.1381E+00  0.1381E+00
     -0.250  0.6506E-01  0.6506E-01  0.1433E+00  0.1433E+00
     -0.171  0.7656E-01  0.7656E-01  0.1493E+00  0.1493E+00
     -0.092  0.8484E-01  0.8484E-01  0.1560E+00  0.1560E+00
     -0.013  0.8655E-01  0.8655E-01  0.1629E+00  0.1629E+00
      0.066  0.8313E-01  0.8313E-01  0.1695E+00  0.1695E+00
      0.146  0.7513E-01  0.7513E-01  0.1754E+00  0.1754E+00
      0.225  0.5986E-01  0.5986E-01  0.1802E+00  0.1802E+00
      0.304  0.3835E-01  0.3835E-01  0.1832E+00  0.1832E+00
      0.383  0.1905E-01  0.1905E-01  0.1847E+00  0.1847E+00
      0.463  0.9121E-02  0.9121E-02  0.1855E+00  0.1855E+00
      0.542  0.6729E-02  0.6729E-02  0.1860E+00  0.1860E+00
      0.621  0.5606E-02  0.5606E-02  0.1864E+00  0.1864E+00
      0.700  0.3081E-02  0.3081E-02  0.1867E+00  0.1867E+00
      0.779  0.5896E-03  0.5895E-03  0.1867E+00  0.1867E+00
      0.859 -0.4288E-03 -0.4288E-03  0.1867E+00  0.1867E+00
      0.938 -0.8651E-04 -0.8651E-04  0.1867E+00  0.1867E+00
      1.017  0.1020E-02  0.1020E-02  0.1868E+00  0.1868E+00
      1.096  0.2485E-02  0.2485E-02  0.1870E+00  0.1870E+00
      1.176  0.4194E-02  0.4194E-02  0.1873E+00  0.1873E+00
      1.255  0.6419E-02  0.6419E-02  0.1878E+00  0.1878E+00
      1.334  0.9164E-02  0.9164E-02  0.1885E+00  0.1885E+00
      1.413  0.1133E-01  0.1133E-01  0.1894E+00  0.1894E+00
      1.493  0.1197E-01  0.1197E-01  0.1904E+00  0.1904E+00
      1.572  0.1179E-01  0.1179E-01  0.1913E+00  0.1913E+00
      1.651  0.1119E-01  0.1119E-01  0.1922E+00  0.1922E+00
      1.730  0.9194E-02  0.9194E-02  0.1929E+00  0.1929E+00
      1.809  0.6426E-02  0.6426E-02  0.1934E+00  0.1934E+00
      1.889  0.5414E-02  0.5414E-02  0.1939E+00  0.1939E+00
      1.968  0.6360E-02  0.6360E-02  0.1944E+00  0.1944E+00
      2.047  0.6388E-02  0.6388E-02  0.1949E+00  0.1949E+00
      2.126  0.4043E-02  0.4043E-02  0.1952E+00  0.1952E+00
      2.206  0.1463E-02  0.1463E-02  0.1953E+00  0.1953E+00
      2.285  0.1149E-02  0.1149E-02  0.1954E+00  0.1954E+00
      2.364  0.2877E-02  0.2877E-02  0.1956E+00  0.1956E+00
      2.443  0.4731E-02  0.4731E-02  0.1960E+00  0.1960E+00
      2.522  0.6143E-02  0.6143E-02  0.1965E+00  0.1965E+00
      2.602  0.8234E-02  0.8234E-02  0.1971E+00  0.1971E+00
      2.681  0.1053E-01  0.1053E-01  0.1980E+00  0.1980E+00
      2.760  0.1025E-01  0.1025E-01  0.1988E+00  0.1988E+00
      2.839  0.6719E-02  0.6719E-02  0.1993E+00  0.1993E+00
      2.919  0.3114E-02  0.3114E-02  0.1996E+00  0.1996E+00
      2.998  0.2535E-02  0.2535E-02  0.1998E+00  0.1998E+00
      3.077  0.4974E-02  0.4974E-02  0.2002E+00  0.2002E+00
      3.156  0.8111E-02  0.8111E-02  0.2008E+00  0.2008E+00
      3.236  0.9188E-02  0.9188E-02  0.2015E+00  0.2015E+00
      3.315  0.7065E-02  0.7065E-02  0.2021E+00  0.2021E+00
      3.394  0.3272E-02  0.3271E-02  0.2023E+00  0.2023E+00
      3.473  0.3673E-03  0.3673E-03  0.2024E+00  0.2024E+00
      3.552 -0.1469E-03 -0.1469E-03  0.2024E+00  0.2024E+00
      3.632  0.1897E-02  0.1897E-02  0.2025E+00  0.2025E+00
      3.711  0.5157E-02  0.5157E-02  0.2029E+00  0.2029E+00
      3.790  0.6799E-02  0.6799E-02  0.2035E+00  0.2035E+00
      3.869  0.5185E-02  0.5185E-02  0.2039E+00  0.2039E+00
      3.949  0.2130E-02  0.2130E-02  0.2040E+00  0.2040E+00
      4.028  0.6259E-03  0.6259E-03  0.2041E+00  0.2041E+00
      4.107  0.1457E-02  0.1457E-02  0.2042E+00  0.2042E+00
      4.186  0.2967E-02  0.2967E-02  0.2044E+00  0.2044E+00
      4.265  0.3200E-02  0.3200E-02  0.2047E+00  0.2047E+00
      4.345  0.1942E-02  0.1942E-02  0.2048E+00  0.2048E+00
      4.424  0.4780E-03  0.4780E-03  0.2049E+00  0.2049E+00
      4.503 -0.3010E-03 -0.3010E-03  0.2049E+00  0.2049E+00
      4.582 -0.4709E-03 -0.4709E-03  0.2048E+00  0.2048E+00
      4.662 -0.9805E-04 -0.9804E-04  0.2048E+00  0.2048E+00
      4.741  0.1259E-02  0.1259E-02  0.2049E+00  0.2049E+00
      4.820  0.4060E-02  0.4060E-02  0.2052E+00  0.2052E+00
      4.899  0.8003E-02  0.8003E-02  0.2059E+00  0.2059E+00
      4.979  0.1125E-01  0.1125E-01  0.2068E+00  0.2068E+00
      5.058  0.1114E-01  0.1114E-01  0.2076E+00  0.2076E+00
      5.137  0.7406E-02  0.7406E-02  0.2082E+00  0.2082E+00
      5.216  0.3303E-02  0.3303E-02  0.2085E+00  0.2085E+00
      5.295  0.2005E-02  0.2005E-02  0.2087E+00  0.2087E+00
      5.375  0.3347E-02  0.3347E-02  0.2089E+00  0.2089E+00
      5.454  0.4737E-02  0.4737E-02  0.2093E+00  0.2093E+00
      5.533  0.4296E-02  0.4296E-02  0.2096E+00  0.2096E+00
      5.612  0.2741E-02  0.2741E-02  0.2098E+00  0.2098E+00
      5.692  0.2253E-02  0.2253E-02  0.2100E+00  0.2100E+00
      5.771  0.4081E-02  0.4081E-02  0.2104E+00  0.2104E+00
      5.850  0.7242E-02  0.7243E-02  0.2109E+00  0.2109E+00
      5.929  0.9018E-02  0.9018E-02  0.2116E+00  0.2116E+00
      6.008  0.7637E-02  0.7637E-02  0.2122E+00  0.2122E+00
      6.088  0.4677E-02  0.4676E-02  0.2126E+00  0.2126E+00
      6.167  0.3158E-02  0.3158E-02  0.2129E+00  0.2129E+00
      6.246  0.3731E-02  0.3731E-02  0.2132E+00  0.2132E+00
      6.325  0.4708E-02  0.4708E-02  0.2135E+00  0.2135E+00
      6.405  0.5414E-02  0.5414E-02  0.2140E+00  0.2140E+00
      6.484  0.6895E-02  0.6897E-02  0.2145E+00  0.2145E+00
      6.563  0.8920E-02  0.8923E-02  0.2152E+00  0.2152E+00
      6.642  0.9369E-02  0.9371E-02  0.2160E+00  0.2160E+00
      6.722  0.7387E-02  0.7386E-02  0.2165E+00  0.2165E+00
      6.801  0.4504E-02  0.4503E-02  0.2169E+00  0.2169E+00
      6.880  0.2913E-02  0.2913E-02  0.2171E+00  0.2171E+00
      6.959  0.4383E-02  0.4384E-02  0.2175E+00  0.2175E+00
      7.038  0.8807E-02  0.8808E-02  0.2182E+00  0.2182E+00
      7.118  0.1247E-01  0.1247E-01  0.2192E+00  0.2192E+00
      7.197  0.1129E-01  0.1128E-01  0.2201E+00  0.2201E+00
      7.276  0.6227E-02  0.6224E-02  0.2206E+00  0.2206E+00
      7.355  0.1941E-02  0.1943E-02  0.2207E+00  0.2207E+00
      7.435  0.1249E-02  0.1259E-02  0.2208E+00  0.2208E+00
      7.514  0.3547E-02  0.3557E-02  0.2211E+00  0.2211E+00
      7.593  0.6639E-02  0.6640E-02  0.2216E+00  0.2216E+00
      7.672  0.8571E-02  0.8561E-02  0.2223E+00  0.2223E+00
      7.752  0.8480E-02  0.8471E-02  0.2230E+00  0.2230E+00
      7.831  0.7053E-02  0.7050E-02  0.2235E+00  0.2235E+00
      7.910  0.6132E-02  0.6134E-02  0.2240E+00  0.2240E+00
      7.989  0.6481E-02  0.6481E-02  0.2245E+00  0.2245E+00
      8.068  0.6759E-02  0.6758E-02  0.2251E+00  0.2251E+00
      8.148  0.5751E-02  0.5750E-02  0.2255E+00  0.2255E+00
      8.227  0.4350E-02  0.4350E-02  0.2259E+00  0.2259E+00
      8.306  0.4644E-02  0.4644E-02  0.2262E+00  0.2262E+00
      8.385  0.6948E-02  0.6947E-02  0.2268E+00  0.2268E+00
      8.465  0.8991E-02  0.8991E-02  0.2275E+00  0.2275E+00
      8.544  0.9500E-02  0.9506E-02  0.2282E+00  0.2282E+00
      8.623  0.9688E-02  0.9698E-02  0.2290E+00  0.2290E+00
      8.702  0.9528E-02  0.9532E-02  0.2298E+00  0.2298E+00
      8.781  0.7282E-02  0.7277E-02  0.2303E+00  0.2303E+00
      8.861  0.3891E-02  0.3888E-02  0.2306E+00  0.2306E+00
      8.940  0.2985E-02  0.2996E-02  0.2309E+00  0.2309E+00
      9.019  0.5744E-02  0.5760E-02  0.2313E+00  0.2313E+00
      9.098  0.9260E-02  0.9262E-02  0.2321E+00  0.2321E+00
      9.178  0.1076E-01  0.1074E-01  0.2329E+00  0.2329E+00
      9.257  0.1041E-01  0.1039E-01  0.2337E+00  0.2337E+00
      9.336  0.8846E-02  0.8836E-02  0.2344E+00  0.2344E+00
      9.415  0.5968E-02  0.5967E-02  0.2349E+00  0.2349E+00
      9.495  0.3382E-02  0.3385E-02  0.2352E+00  0.2352E+00
      9.574  0.3540E-02  0.3544E-02  0.2355E+00  0.2355E+00
      9.653  0.5991E-02  0.5995E-02  0.2359E+00  0.2359E+00
      9.732  0.7819E-02  0.7826E-02  0.2366E+00  0.2366E+00
      9.811  0.7504E-02  0.7509E-02  0.2372E+00  0.2372E+00
      9.891  0.6294E-02  0.6292E-02  0.2377E+00  0.2377E+00
      9.970  0.6046E-02  0.6037E-02  0.2381E+00  0.2381E+00
     10.049  0.6717E-02  0.6710E-02  0.2387E+00  0.2387E+00
     10.128  0.6895E-02  0.6899E-02  0.2392E+00  0.2392E+00
     10.208  0.6700E-02  0.6713E-02  0.2397E+00  0.2397E+00
     10.287  0.7738E-02  0.7750E-02  0.2404E+00  0.2404E+00
     10.366  0.1020E-01  0.1020E-01  0.2412E+00  0.2412E+00
     10.445  0.1233E-01  0.1233E-01  0.2421E+00  0.2421E+00
     10.524  0.1184E-01  0.1183E-01  0.2431E+00  0.2431E+00
     10.604  0.7932E-02  0.7922E-02  0.2437E+00  0.2437E+00
     10.683  0.3540E-02  0.3533E-02  0.2440E+00  0.2440E+00
     10.762  0.3273E-02  0.3273E-02  0.2443E+00  0.2443E+00
     10.841  0.8081E-02  0.8089E-02  0.2449E+00  0.2449E+00
     10.921  0.1384E-01  0.1385E-01  0.2460E+00  0.2460E+00
     11.000  0.1579E-01  0.1579E-01  0.2472E+00  0.2472E+00
     11.079  0.1300E-01  0.1299E-01  0.2483E+00  0.2483E+00
     11.158  0.7977E-02  0.7968E-02  0.2489E+00  0.2489E+00
     11.238  0.3454E-02  0.3447E-02  0.2492E+00  0.2492E+00
     11.317  0.6860E-03  0.6828E-03  0.2492E+00  0.2492E+00
     11.396 -0.3140E-03 -0.3146E-03  0.2492E+00  0.2492E+00
     11.475 -0.1332E-03 -0.1329E-03  0.2492E+00  0.2492E+00
     11.554  0.5393E-03  0.5395E-03  0.2492E+00  0.2492E+00
     11.634  0.1063E-02  0.1063E-02  0.2493E+00  0.2493E+00
     11.713  0.1019E-02  0.1019E-02  0.2494E+00  0.2494E+00
     11.792  0.5312E-03  0.5312E-03  0.2494E+00  0.2494E+00
     11.871  0.5013E-04  0.5013E-04  0.2494E+00  0.2494E+00
     11.951 -0.1692E-03 -0.1692E-03  0.2494E+00  0.2494E+00
     12.030 -0.3889E-04 -0.3889E-04  0.2494E+00  0.2494E+00
     12.109  0.6040E-03  0.6040E-03  0.2495E+00  0.2495E+00
     12.188  0.1635E-02  0.1635E-02  0.2496E+00  0.2496E+00
     12.267  0.2281E-02  0.2281E-02  0.2498E+00  0.2498E+00
     12.347  0.1896E-02  0.1896E-02  0.2499E+00  0.2499E+00
     12.426  0.8865E-03  0.8865E-03  0.2500E+00  0.2500E+00
     12.505  0.1223E-03  0.1223E-03  0.2500E+00  0.2500E+00
     12.584 -0.1145E-03 -0.1145E-03  0.2500E+00  0.2500E+00
     12.664 -0.8483E-04 -0.8483E-04  0.2500E+00  0.2500E+00
     12.743 -0.2964E-04 -0.2964E-04  0.2500E+00  0.2500E+00
     12.822 -0.6497E-05 -0.6497E-05  0.2500E+00  0.2500E+00
     12.901 -0.9620E-06 -0.9619E-06  0.2500E+00  0.2500E+00
     12.981 -0.9926E-07 -0.9926E-07  0.2500E+00  0.2500E+00
     13.060 -0.7253E-08 -0.7253E-08  0.2500E+00  0.2500E+00
     13.139 -0.3788E-09 -0.3788E-09  0.2500E+00  0.2500E+00
     13.218 -0.1423E-10 -0.1423E-10  0.2500E+00  0.2500E+00
     13.297 -0.3857E-12 -0.3857E-12  0.2500E+00  0.2500E+00
     13.377 -0.7569E-14 -0.7568E-14  0.2500E+00  0.2500E+00
     13.456 -0.1090E-15 -0.1090E-15  0.2500E+00  0.2500E+00
     13.535 -0.7785E-18 -0.7785E-18  0.2500E+00  0.2500E+00
     13.614  0.0000E+00  0.0000E+00  0.2500E+00  0.2500E+00
     13.694  0.0000E+00  0.0000E+00  0.2500E+00  0.2500E+00
     13.773  0.0000E+00  0.0000E+00  0.2500E+00  0.2500E+00
     13.852  0.0000E+00  0.0000E+00  0.2500E+00  0.2500E+00
     13.931  0.0000E+00  0.0000E+00  0.2500E+00  0.2500E+00
     14.010  0.0000E+00  0.0000E+00  0.2500E+00  0.2500E+00
     14.090  0.0000E+00  0.0000E+00  0.2500E+00  0.2500E+00
     14.169  0.0000E+00  0.0000E+00  0.2500E+00  0.2500E+00
     14.248  0.0000E+00  0.0000E+00  0.2500E+00  0.2500E+00
