 vasp.6.3.2 27Jun22 (build Aug 17 2022 15:43:34) complex                        
  
 executed on           tv2STDVTST date 2025.01.17  14:08:43
 running   20 mpi-ranks, with    1 threads/rank
 distrk:  each k-point on   20 cores,    1 groups
 distr:  one band on NCORE=   5 cores,    4 groups


--------------------------------------------------------------------------------------------------------


 -----------------------------------------------------------------------------
|                                                                             |
|           W    W    AA    RRRRR   N    N  II  N    N   GGGG   !!!           |
|           W    W   A  A   R    R  NN   N  II  NN   N  G    G  !!!           |
|           W    W  A    A  R    R  N N  N  II  N N  N  G       !!!           |
|           W WW W  AAAAAA  RRRRR   N  N N  II  N  N N  G  GGG   !            |
|           WW  WW  A    A  R   R   N   NN  II  N   NN  G    G                |
|           W    W  A    A  R    R  N    N  II  N    N   GGGG   !!!           |
|                                                                             |
|     Found issues when parsing the INCAR file                                |
|     In line 64: Tagname --- R W I G S contains invalid characters.          |
|     Please check if the interpretation in the OUTCAR file is correct.       |
|                                                                             |
 -----------------------------------------------------------------------------

 INCAR:
    = \=\=\=\=\=\=\=\=\=\=\=\=\=\=\=\=\=\=\=\=\=\=\=\=\=\=\=\=\=\=\=\=\=\=\=\=\=\=\=\=\=\=\=\=\=\=\=\=\=\=\=\=\=\=\=\=\=\=\=\=\=\=\=\=\=\=\=\=\=\=\=\=
    = \=\=\=\=\=\=\=\=\=\=\=\=\=\=\=\=\=\=\=\=\=\=\=\=\=\=\=\=\=\=\=\=\=\=\=\=\=\=\=\=\=\=\=\=\=\=\=\=\=\=\=\=\=\=\=\=\=\=\=\=\=\=\=\=\=\=\=\=\=\=\=\=
   ISTART = 0
   ICHARG = 2
   IPIPOL = 3
   IVDW = 11
   IDIPOL = 3
   IVDW = 11
    = \=\=\=\=\=\=\=\=\=\=\=\=\=\=\=\=\=\=\=\=\=\=\=\=\=\=\=\=\=\=\=\=\=\=\=\=\=\=\=\=\=\=\=\=\=\=\=\=\=\=\=\=\=\=\=\=\=\=\=\=\=\=\=\=\=\=\=\=\=\=\=\=
    = \=\=\=\=\=\=\=\=\=\=\=\=\=\=\=\=\=\=\=\=\=\=\=\=\=\=\=\=\=\=\=\=\=\=\=\=\=\=\=\=\=\=\=\=\=\=\=\=\=\=\=\=\=\=\=\=\=\=\=\=\=\=\=\=\=\=\=\=\=\=\=\=
   ISPIN = 2
    = \=\=\=\=\=\=\=\=\=\=\=\=\=\=\=\=\=\=\=\=\=\=\=\=\=\=\=\=\=\=\=\=\=\=\=\=\=\=\=\=\=\=\=\=\=\=\=\=\=\=\=\=\=\=\=\=\=\=\=\=\=\=\=\=\=\=\=\=\=\=\=\=
    = \=\=\=\=\=\=\=\=\=\=\=\=\=\=\=\=\=\=\=\=\=\=\=\=\=\=\=\=\=\=\=\=\=\=\=\=\=\=\=\=\=\=\=\=\=\=\=\=\=\=\=\=\=\=\=\=\=\=\=\=\=\=\=\=\=\=\=\=\=\=\=\=
   ENCUT = 400
   PREC = Normal
   EDIFF = 2E-04
   GGA = PE
   ISMEAR = 1
   SIGMA = 0.2
   LREAL = .FALSE.
    = \=\=\=\=\=\=\=\=\=\=\=\=\=\=\=\=\=\=\=\=\=\=\=\=\=\=\=\=\=\=\=\=\=\=\=\=\=\=\=\=\=\=\=\=\=\=\=\=\=\=\=\=\=\=\=\=\=\=\=\=\=\=\=\=\=\=\=\=\=\=\=\=
    = \=\=\=\=\=\=\=\=\=\=\=\=\=\=\=\=\=\=\=\=\=\=\=\=\=\=\=\=\=\=\=\=\=\=\=\=\=\=\=\=\=\=\=\=\=\=\=\=\=\=\=\=\=\=\=\=\=\=\=\=\=\=\=\=\=\=\=\=\=\=\=\=
   ISYM = 1
   NSW = 800
   IBRION = 2
   POTIM = 0.5
   ISIF = 2
   EDIFFG = -.03
    = \=\=\=\=\=\=\=\=\=\=\=\=\=\=\=\=\=\=\=\=\=\=\=\=\=\=\=\=\=\=\=\=\=\=\=\=\=\=\=\=\=\=\=\=\=\=\=\=\=\=\=\=\=\=\=\=\=\=\=\=\=\=\=\=\=\=\=\=\=\=\=\=
    = \=\=\=\=\=\=\=\=\=\=\=\=\=\=\=\=\=\=\=\=\=\=\=\=\=\=\=\=\=\=\=\=\=\=\=\=\=\=\=\=\=\=\=\=\=\=\=\=\=\=\=\=\=\=\=\=\=\=\=\=\=\=\=\=\=\=\=\=\=\=\=\=
   NPAR = 4
   LWAVE = .FALSE.
   LCHARG = .FALSE.

 POTCAR:    PAW_PBE Cu 22Jun2005                  
 -----------------------------------------------------------------------------
|                                                                             |
|           W    W    AA    RRRRR   N    N  II  N    N   GGGG   !!!           |
|           W    W   A  A   R    R  NN   N  II  NN   N  G    G  !!!           |
|           W    W  A    A  R    R  N N  N  II  N N  N  G       !!!           |
|           W WW W  AAAAAA  RRRRR   N  N N  II  N  N N  G  GGG   !            |
|           WW  WW  A    A  R   R   N   NN  II  N   NN  G    G                |
|           W    W  A    A  R    R  N    N  II  N    N   GGGG   !!!           |
|                                                                             |
|     You use a magnetic or noncollinear calculation, but did not specify     |
|     the initial magnetic moment with the MAGMOM tag. Note that a            |
|     default of 1 will be used for all atoms. This ferromagnetic setup       |
|     may break the symmetry of the crystal, in particular it may rule        |
|     out finding an antiferromagnetic solution. Thence, we recommend         |
|     setting the initial magnetic moment manually or verifying carefully     |
|     that this magnetic setup is desired.                                    |
|                                                                             |
 -----------------------------------------------------------------------------

 POTCAR:    PAW_PBE Cu 22Jun2005                  
   SHA256 =  0e71e558f37a4e8407882b4609ceaae59938afaad9ced71dfe8490308a0ab630 Cu/POTCAR             
   COPYR  = (c) Copyright 22Jun2005 Georg Kresse                                                    
   COPYR  = This file is part of the software VASP. Any use, copying, and all other rights are regul
   COPYR  = If you do not have a valid VASP license, you may not use, copy or distribute this file. 
   VRHFIN =Cu: d10 p1                                                                               
   LEXCH  = PE                                                                                      
   EATOM  =  1390.9808 eV,  102.2342 Ry                                                             
                                                                                                    
   TITEL  = PAW_PBE Cu 22Jun2005                                                                    
   LULTRA =        F    use ultrasoft PP ?                                                          
   IUNSCR =        1    unscreen: 0-lin 1-nonlin 2-no                                               
   RPACOR =    2.000    partial core radius                                                         
   POMASS =   63.546; ZVAL   =   11.000    mass and valenz                                          
   RCORE  =    2.300    outmost cutoff radius                                                       
   RWIGS  =    2.200; RWIGS  =    1.164    wigner-seitz radius (au A)                               
   ENMAX  =  295.446; ENMIN  =  221.585 eV                                                          
   ICORE  =        3    local potential                                                             
   LCOR   =        T    correct aug charges                                                         
   LPAW   =        T    paw PP                                                                      
   EAUG   =  586.980                                                                                
   DEXC   =    0.000                                                                                
   RMAX   =    2.344    core radius for proj-oper                                                   
   RAUG   =    1.300    factor for augmentation sphere                                              
   RDEP   =    2.302    radius for radial grids                                                     
   RDEPT  =    1.771    core radius for aug-charge                                                  
                                                                                                    
   Atomic configuration                                                                             
    9 entries                                                                                       
     n  l   j            E        occ.                                                              
     1  0  0.50     -8850.2468   2.0000                                                             
     2  0  0.50     -1062.3498   2.0000                                                             
     2  1  1.50      -916.8226   6.0000                                                             
     3  0  0.50      -114.6929   2.0000                                                             
     3  1  1.50       -72.1325   6.0000                                                             
     3  2  2.50        -5.0394  10.0000                                                             
     4  0  0.50        -4.6097   1.0000                                                             
     4  1  0.50        -4.0817   0.0000                                                             
     4  3  2.50        -1.3606   0.0000                                                             
   Description                                                                                      
     l       E           TYP  RCUT    TYP  RCUT                                                     
     2     -5.0393973     23  2.200                                                                 
     2     10.8846608     23  2.200                                                                 
     0     -4.6097109     23  2.200                                                                 
     0      8.2520465     23  2.200                                                                 
     1     -2.7211652     23  2.200                                                                 
     1     21.7055443     23  2.200                                                                 
     3      2.7211652     23  2.300                                                                 
  local pseudopotential read in
  partial core-charges read in
  partial kinetic energy density read in
  atomic valenz-charges read in
  non local Contribution for L=           2  read in
    real space projection operators read in
  non local Contribution for L=           2  read in
    real space projection operators read in
  non local Contribution for L=           0  read in
    real space projection operators read in
  non local Contribution for L=           0  read in
    real space projection operators read in
  non local Contribution for L=           1  read in
    real space projection operators read in
  non local Contribution for L=           1  read in
    real space projection operators read in
    PAW grid and wavefunctions read in
 
   number of l-projection  operators is LMAX  =           6
   number of lm-projection operators is LMMAX =          18
 
 -----------------------------------------------------------------------------
|                                                                             |
|               ----> ADVICE to this user running VASP <----                  |
|                                                                             |
|     You have a (more or less) 'large supercell' and for larger cells it     |
|     might be more efficient to use real-space projection operators.         |
|     Therefore, try LREAL= Auto in the INCAR file.                           |
|     Mind: For very accurate calculation, you might also keep the            |
|     reciprocal projection scheme (i.e. LREAL=.FALSE.).                      |
|                                                                             |
 -----------------------------------------------------------------------------

  PAW_PBE Cu 22Jun2005                  :
 energy of atom  1       EATOM=-1390.9808
 kinetic energy error for atom=    0.0232 (will be added to EATOM!!)
 
 
 POSCAR: FCC Cu
  positions in cartesian coordinates
  No initial velocities read in
 exchange correlation table for  LEXCH =        8
   RHO(1)=    0.500       N(1)  =     2000
   RHO(2)=  100.500       N(2)  =     4000

 VTST: version 4.2, (08/11/21)

 CHAIN: initializing optimizer
 
 OPT: Using VASP Conjugate-Gradient optimizer
 CHAIN: Read ICHAIN            0
 
 POSCAR: FCC Cu
  positions in cartesian coordinates
  No initial velocities read in
 


--------------------------------------------------------------------------------------------------------


 ion  position               nearest neighbor table
   1  0.000  0.000  0.000-   4 2.57   3 2.57   2 2.57   2 2.57   3 2.57   4 2.57   7 2.57   5 2.57
                             6 2.57
   2  0.000  0.500  0.000-   3 2.57   4 2.57   1 2.57   1 2.57   4 2.57   3 2.57   5 2.57   8 2.57
                             6 2.57
   3  0.500  0.000  0.000-   2 2.57   1 2.57   4 2.57   4 2.57   1 2.57   2 2.57   5 2.57   7 2.57
                             8 2.57
   4  0.500  0.500  0.000-   1 2.57   2 2.57   3 2.57   3 2.57   2 2.57   1 2.57   6 2.57   7 2.57
                             8 2.57
   5  0.167  0.167  0.076-   8 2.57   7 2.57   6 2.57   6 2.57   7 2.57   8 2.57   3 2.57   2 2.57
                             1 2.57   9 2.57  10 2.57  11 2.57
   6  0.167  0.667  0.076-   7 2.57   8 2.57   5 2.57   5 2.57   8 2.57   7 2.57   4 2.57   2 2.57
                             1 2.57  10 2.57   9 2.57  12 2.57
   7  0.667  0.167  0.076-   6 2.57   5 2.57   8 2.57   8 2.57   5 2.57   6 2.57   4 2.57   1 2.57
                             3 2.57  11 2.57   9 2.57  12 2.57
   8  0.667  0.667  0.076-   5 2.57   6 2.57   7 2.57   7 2.57   6 2.57   5 2.57   2 2.57   4 2.57
                             3 2.57  12 2.57  11 2.57  10 2.57
   9  0.333  0.333  0.152-  12 2.57  11 2.57  10 2.57  10 2.57  11 2.57  12 2.57   5 2.57  14 2.57
                             6 2.57  15 2.57   7 2.57  16 2.57
  10  0.333  0.833  0.152-  11 2.57  12 2.57   9 2.57   9 2.57  12 2.57  11 2.57   6 2.57  16 2.57
                            15 2.57   8 2.57  13 2.57   5 2.57
  11  0.833  0.333  0.152-  10 2.57   9 2.57  12 2.57  12 2.57   9 2.57  10 2.57   7 2.57  16 2.57
                             8 2.57  13 2.57   5 2.57  14 2.57
  12  0.833  0.833  0.152-   9 2.57  10 2.57  11 2.57  11 2.57  10 2.57   9 2.57   8 2.57  14 2.57
                            15 2.57   7 2.57  13 2.57   6 2.57
  13  0.000  0.000  0.228-  16 2.57  15 2.57  14 2.57  14 2.57  15 2.57  16 2.57  19 2.57  17 2.57
                            18 2.57  11 2.57  10 2.57  12 2.57
  14  0.000  0.500  0.228-  15 2.57  16 2.57  13 2.57  13 2.57  16 2.57  15 2.57  17 2.57  20 2.57
                            18 2.57   9 2.57  12 2.57  11 2.57
  15  0.500  0.000  0.228-  14 2.57  13 2.57  16 2.57  16 2.57  13 2.57  14 2.57  17 2.57  19 2.57
                            20 2.57   9 2.57  10 2.57  12 2.57
  16  0.500  0.500  0.228-  13 2.57  14 2.57  15 2.57  15 2.57  14 2.57  13 2.57  18 2.57  19 2.57
                            20 2.57  11 2.57  10 2.57   9 2.57
  17  0.167  0.167  0.304-  20 2.57  19 2.57  18 2.57  18 2.57  19 2.57  20 2.57  21 2.57  22 2.57
                            23 2.57  15 2.57  14 2.57  13 2.57
  18  0.167  0.667  0.304-  19 2.57  20 2.57  17 2.57  17 2.57  20 2.57  19 2.57  22 2.57  21 2.57
                            24 2.57  16 2.57  14 2.57  13 2.57
  19  0.667  0.167  0.304-  18 2.57  17 2.57  20 2.57  20 2.57  17 2.57  18 2.57  23 2.57  21 2.57
                            24 2.57  16 2.57  13 2.57  15 2.57
  20  0.667  0.667  0.304-  17 2.57  18 2.57  19 2.57  19 2.57  18 2.57  17 2.57  24 2.57  23 2.57
                            22 2.57  14 2.57  16 2.57  15 2.57
  21  0.333  0.333  0.380-  24 2.57  23 2.57  22 2.57  22 2.57  23 2.57  24 2.57  17 2.57  18 2.57
                            19 2.57  26 2.57  27 2.57  28 2.57
  22  0.333  0.833  0.380-  23 2.57  24 2.57  21 2.57  21 2.57  24 2.57  23 2.57  18 2.57  20 2.57
                            17 2.57  28 2.57  27 2.57  25 2.57
  23  0.833  0.333  0.380-  22 2.57  21 2.57  24 2.57  24 2.57  21 2.57  22 2.57  19 2.57  20 2.57
                            17 2.57  28 2.57  25 2.57  26 2.57
  24  0.833  0.833  0.380-  21 2.57  22 2.57  23 2.57  23 2.57  22 2.57  21 2.57  20 2.57  19 2.57
                            18 2.57  26 2.57  27 2.57  25 2.57
  25  0.000  0.000  0.456-  28 2.57  27 2.57  26 2.57  26 2.57  27 2.57  28 2.57  23 2.57  22 2.57
                            24 2.57
  26  0.000  0.500  0.456-  27 2.57  28 2.57  25 2.57  25 2.57  28 2.57  27 2.57  21 2.57  24 2.57
                            23 2.57
  27  0.500  0.000  0.456-  26 2.57  25 2.57  28 2.57  28 2.57  25 2.57  26 2.57  21 2.57  22 2.57
                            24 2.57
  28  0.500  0.500  0.456-  25 2.57  26 2.57  27 2.57  27 2.57  26 2.57  25 2.57  23 2.57  22 2.57
                            21 2.57
 
  LATTYP: Found a hexagonal cell.
 ALAT       =     5.1335954666
 C/A-ratio  =     5.3714185398
  
  Lattice vectors:
  
 A1 = (  -2.5667977333,  -4.4458240868,   0.0000000000)
 A2 = (   5.1335954666,   0.0000000000,   0.0000000000)
 A3 = (   0.0000000000,   0.0000000000,  27.5746898651)


Analysis of symmetry for initial positions (statically):
=====================================================================
 Subroutine PRICEL returns following result:
 
  LATTYP: Found a hexagonal cell.
 ALAT       =     2.5667977331
 C/A-ratio  =    10.7428370804
  
  Lattice vectors:
  
 A1 = (  -1.2833988670,  -2.2229120430,   0.0000000000)
 A2 = (   2.5667977330,   0.0000000000,   0.0000000000)
 A3 = (   0.0000000000,   0.0000000000,  27.5746898651)
 
   4 primitive cells build up your supercell.
 

 Routine SETGRP: Setting up the symmetry group for a 
 hexagonal supercell.


 Subroutine GETGRP returns: Found 12 space group operations
 (whereof  6 operations were pure point group operations)
 out of a pool of 24 trial point group operations.


The static configuration has the point symmetry C_3v.
 The point group associated with its full space group is D_3d.


Analysis of symmetry for dynamics (positions and initial velocities):
=====================================================================
 Subroutine PRICEL returns following result:
 
  LATTYP: Found a hexagonal cell.
 ALAT       =     2.5667977331
 C/A-ratio  =    10.7428370804
  
  Lattice vectors:
  
 A1 = (  -1.2833988670,  -2.2229120430,   0.0000000000)
 A2 = (   2.5667977330,   0.0000000000,   0.0000000000)
 A3 = (   0.0000000000,   0.0000000000,  27.5746898651)
 
   4 primitive cells build up your supercell.
 

 Routine SETGRP: Setting up the symmetry group for a 
 hexagonal supercell.


 Subroutine GETGRP returns: Found 12 space group operations
 (whereof  6 operations were pure point group operations)
 out of a pool of 24 trial point group operations.


The dynamic configuration has the point symmetry C_3v.
 The point group associated with its full space group is D_3d.


Analysis of constrained symmetry for selective dynamics:
=====================================================================
 Subroutine PRICEL returns following result:
 
  LATTYP: Found a hexagonal cell.
 ALAT       =     2.5667977331
 C/A-ratio  =    10.7428370804
  
  Lattice vectors:
  
 A1 = (  -1.2833988670,  -2.2229120430,   0.0000000000)
 A2 = (   2.5667977330,   0.0000000000,   0.0000000000)
 A3 = (   0.0000000000,   0.0000000000,  27.5746898651)
 
   4 primitive cells build up your supercell.
 

 Routine SETGRP: Setting up the symmetry group for a 
 hexagonal supercell.


 Subroutine GETGRP returns: Found  6 space group operations
 (whereof  6 operations were pure point group operations)
 out of a pool of 24 trial point group operations.


The constrained configuration has the point symmetry C_3v.


Analysis of structural, dynamic, and magnetic symmetry:
=====================================================================
 Subroutine PRICEL returns following result:
 
  LATTYP: Found a hexagonal cell.
 ALAT       =     2.5667977331
 C/A-ratio  =    10.7428370804
  
  Lattice vectors:
  
 A1 = (  -1.2833988670,  -2.2229120430,   0.0000000000)
 A2 = (   2.5667977330,   0.0000000000,   0.0000000000)
 A3 = (   0.0000000000,   0.0000000000,  27.5746898651)
 
   4 primitive cells build up your supercell.
 

 Routine SETGRP: Setting up the symmetry group for a 
 hexagonal supercell.


 Subroutine GETGRP returns: Found  6 space group operations
 (whereof  6 operations were pure point group operations)
 out of a pool of 24 trial point group operations.


The overall configuration has the point symmetry C_3v.


 Subroutine INISYM returns: Found  6 space group operations
 (whereof  6 operations are pure point group operations),
 and found     4 'primitive' translations


----------------------------------------------------------------------------------------

                                     Primitive cell                                     

  volume of cell :     157.3347

  direct lattice vectors                    reciprocal lattice vectors
    -1.283398867 -2.222912043  0.000000000     0.000000000 -0.449860355  0.000000000
     2.566797733  0.000000000  0.000000000     0.389590495 -0.224930177  0.000000000
     0.000000000  0.000000000 27.574689865     0.000000000  0.000000000  0.036265140

  length of vectors
     2.566797733  2.566797733 27.574689865     0.449860355  0.449860355  0.036265140

  position of ions in fractional coordinates (direct lattice)
     0.000000000  0.000000000  0.000000000
     0.666666667  0.333333333  0.076003814
     0.333333333  0.666666667  0.152007627
     0.000000000  0.000000000  0.228011441
     0.666666667  0.333333333  0.304015254
     0.333333333  0.666666667  0.380019068
     0.000000000  0.000000000  0.456022881

  ion indices of the primitive-cell ions
   primitive index   ion index
                 1           1
                 2           5
                 3          12
                 4          13
                 5          17
                 6          24
                 7          25

----------------------------------------------------------------------------------------

 
 
 KPOINTS: Auto-mesh                               

Automatic generation of k-mesh.
 Grid dimensions read from file:
 generate k-points for:    3    3    1

 Generating k-lattice:

  Cartesian coordinates                     Fractional coordinates (reciprocal lattice)
     0.064931749 -0.037488363  0.000000000     0.333333333  0.000000000  0.000000000
     0.000000000  0.074976726  0.000000000     0.000000000  0.333333333  0.000000000
     0.000000000  0.000000000  0.036265140     0.000000000  0.000000000  1.000000000

  Length of vectors
     0.074976726  0.074976726  0.036265140

  Shift w.r.t. Gamma in fractional coordinates (k-lattice)
     0.000000000  0.000000000  0.000000000

 
 Subroutine IBZKPT returns following result:
 ===========================================
 
 Found      3 irreducible k-points:
 
 Following reciprocal coordinates:
            Coordinates               Weight
  0.000000  0.000000  0.000000      1.000000
  0.333333 -0.000000  0.000000      6.000000
 -0.333333  0.333333  0.000000      2.000000
 
 Following cartesian coordinates:
            Coordinates               Weight
  0.000000  0.000000  0.000000      1.000000
  0.064932 -0.037488  0.000000      6.000000
 -0.064932  0.112465  0.000000      2.000000
 


--------------------------------------------------------------------------------------------------------




 Dimension of arrays:
   k-points           NKPTS =      3   k-points in BZ     NKDIM =      3   number of bands    NBANDS=    200
   number of dos      NEDOS =    301   number of ions     NIONS =     28
   non local maximal  LDIM  =      6   non local SUM 2l+1 LMDIM =     18
   total plane-waves  NPLWV = 109760
   max r-space proj   IRMAX =      1   max aug-charges    IRDMAX=   5251
   dimension x,y,z NGX =    28 NGY =   28 NGZ =  140
   dimension x,y,z NGXF=    56 NGYF=   56 NGZF=  280
   support grid    NGXF=    56 NGYF=   56 NGZF=  280
   ions per type =              28
   NGX,Y,Z   is equivalent  to a cutoff of   9.07,  9.07,  8.44 a.u.
   NGXF,Y,Z  is equivalent  to a cutoff of  18.13, 18.13, 16.88 a.u.

 SYSTEM =  unknown system                          
 POSCAR =  FCC Cu                                  

 Startparameter for this run:
   NWRITE =      2    write-flag & timer
   PREC   = normal    normal or accurate (medium, high low for compatibility)
   ISTART =      0    job   : 0-new  1-cont  2-samecut
   ICHARG =      2    charge: 1-file 2-atom 10-const
   ISPIN  =      2    spin polarized calculation?
   LNONCOLLINEAR =      F non collinear calculations
   LSORBIT =      F    spin-orbit coupling
   INIWAV =      1    electr: 0-lowe 1-rand  2-diag
   LASPH  =      F    aspherical Exc in radial PAW
 Electronic Relaxation 1
   ENCUT  =  400.0 eV  29.40 Ry    5.42 a.u.   8.37  8.37 44.97*2*pi/ulx,y,z
   ENINI  =  400.0     initial cutoff
   ENAUG  =  587.0 eV  augmentation charge cutoff
   NELM   =     60;   NELMIN=  2; NELMDL= -5     # of ELM steps 
   EDIFF  = 0.2E-03   stopping-criterion for ELM
   LREAL  =      F    real-space projection
   NLSPLINE    = F    spline interpolate recip. space projectors
   LCOMPAT=      F    compatible to vasp.4.4
   GGA_COMPAT  = T    GGA compatible to vasp.4.4-vasp.4.6
   LMAXPAW     = -100 max onsite density
   LMAXMIX     =    2 max onsite mixed and CHGCAR
   VOSKOWN=      0    Vosko Wilk Nusair interpolation
   ROPT   =    0.00000
 Ionic relaxation
   EDIFFG = -.3E-01   stopping-criterion for IOM
   NSW    =    800    number of steps for IOM
   NBLOCK =      1;   KBLOCK =    800    inner block; outer block 
   IBRION =      2    ionic relax: 0-MD 1-quasi-New 2-CG
   NFREE  =      1    steps in history (QN), initial steepest desc. (CG)
   ISIF   =      2    stress and relaxation
   IWAVPR =     11    prediction:  0-non 1-charg 2-wave 3-comb
   ISYM   =      1    0-nonsym 1-usesym 2-fastsym
   LCORR  =      T    Harris-Foulkes like correction to forces

   POTIM  = 0.5000    time-step for ionic-motion
   TEIN   =    0.0    initial temperature
   TEBEG  =    0.0;   TEEND  =   0.0 temperature during run
   SMASS  =  -3.00    Nose mass-parameter (am)
   estimated Nose-frequenzy (Omega)   =  0.10E-29 period in steps = 0.13E+47 mass=  -0.602E-27a.u.
   SCALEE = 1.0000    scale energy and forces
   NPACO  =    256;   APACO  = 10.0  distance and # of slots for P.C.
   PSTRESS=    0.0 pullay stress

  Mass of Ions in am
   POMASS =  63.55
  Ionic Valenz
   ZVAL   =  11.00
  Atomic Wigner-Seitz radii
   RWIGS  =  -1.00
  virtual crystal weights 
   VCA    =   1.00
   NELECT =     308.0000    total number of electrons
   NUPDOWN=      -1.0000    fix difference up-down

 DOS related values:
   EMIN   =  10.00;   EMAX   =-10.00  energy-range for DOS
   EFERMI =   0.00
   ISMEAR =     1;   SIGMA  =   0.20  broadening in eV -4-tet -1-fermi 0-gaus

 Electronic relaxation 2 (details)
   IALGO  =     38    algorithm
   LDIAG  =      T    sub-space diagonalisation (order eigenvalues)
   LSUBROT=      F    optimize rotation matrix (better conditioning)
   TURBO    =      0    0=normal 1=particle mesh
   IRESTART =      0    0=no restart 2=restart with 2 vectors
   NREBOOT  =      0    no. of reboots
   NMIN     =      0    reboot dimension
   EREF     =   0.00    reference energy to select bands
   IMIX   =      4    mixing-type and parameters
     AMIX     =   0.40;   BMIX     =  1.00
     AMIX_MAG =   1.60;   BMIX_MAG =  1.00
     AMIN     =   0.10
     WC   =   100.;   INIMIX=   1;  MIXPRE=   1;  MAXMIX= -45

 Intra band minimization:
   WEIMIN = 0.0010     energy-eigenvalue tresh-hold
   EBREAK =  0.25E-06  absolut break condition
   DEPER  =   0.30     relativ break condition  

   TIME   =   0.40     timestep for ELM

  volume/ion in A,a.u.               =      22.48       151.68
  Fermi-wavevector in a.u.,A,eV,Ry     =   1.290120  2.437974 22.645679  1.664410
  Thomas-Fermi vector in A             =   2.421971
 
 Write flags
   LWAVE        =      F    write WAVECAR
   LDOWNSAMPLE  =      F    k-point downsampling of WAVECAR
   LCHARG       =      F    write CHGCAR
   LVTOT        =      F    write LOCPOT, total local potential
   LVHAR        =      F    write LOCPOT, Hartree potential only
   LELF         =      F    write electronic localiz. function (ELF)
   LORBIT       =      0    0 simple, 1 ext, 2 COOP (PROOUT), +10 PAW based schemes


 Dipole corrections
   LMONO  =      F    monopole corrections only (constant potential shift)
   LDIPOL =      F    correct potential (dipole corrections)
   IDIPOL =      3    1-x, 2-y, 3-z, 4-all directions 
   EPSILON=  1.0000000 bulk dielectric constant

 Exchange correlation treatment:
   GGA     =    PE    GGA type
   LEXCH   =     8    internal setting for exchange type
   LIBXC   =     F    Libxc                    
   VOSKOWN =     0    Vosko Wilk Nusair interpolation
   LHFCALC =     F    Hartree Fock is set to
   LHFONE  =     F    Hartree Fock one center treatment
   AEXX    =    0.0000 exact exchange contribution

 Linear response parameters
   LEPSILON=     F    determine dielectric tensor
   LRPA    =     F    only Hartree local field effects (RPA)
   LNABLA  =     F    use nabla operator in PAW spheres
   LVEL    =     F    velocity operator in full k-point grid
   CSHIFT  =0.1000    complex shift for real part using Kramers Kronig
   OMEGAMAX=  -1.0    maximum frequency
   DEG_THRESHOLD= 0.2000000E-02 threshold for treating states as degnerate
   RTIME   =   -0.100 relaxation time in fs
  (WPLASMAI=    0.000 imaginary part of plasma frequency in eV, 0.658/RTIME)
   DFIELD  = 0.0000000 0.0000000 0.0000000 field for delta impulse in time
 
  Optional k-point grid parameters
   LKPOINTS_OPT  =     F    use optional k-point grid
   KPOINTS_OPT_MODE=     1    mode for optional k-point grid
 
 Orbital magnetization related:
   ORBITALMAG=     F  switch on orbital magnetization
   LCHIMAG   =     F  perturbation theory with respect to B field
   DQ        =  0.001000  dq finite difference perturbation B field
   LLRAUG    =     F  two centre corrections for induced B field



--------------------------------------------------------------------------------------------------------


 conjugate gradient relaxation of ions
   using selective dynamics as specified on POSCAR
   WARNING: If single coordinates had been selected the selection of coordinates
            is made according to the corresponding   d i r e c t   coordinates!
            Don't support selection of single cartesian coordinates -- sorry ...
  !
 charge density and potential will be updated during run
 spin polarized calculation
 Variant of blocked Davidson
 Davidson routine will perform the subspace rotation
 perform sub-space diagonalisation
    after iterative eigenvector-optimisation
 modified Broyden-mixing scheme, WC =      100.0
 initial mixing is a Kerker type mixing with AMIX =  0.4000 and BMIX =      1.0000
 Hartree-type preconditioning will be used
 using additional bands           46
 reciprocal scheme for non local part
 use partial core corrections
 calculate Harris-corrections to forces 
   (improved forces if not selfconsistent)
 use gradient corrections 
 use of overlap-Matrix (Vanderbilt PP)
 Methfessel and Paxton  Order N= 1 SIGMA  =   0.20


--------------------------------------------------------------------------------------------------------


  energy-cutoff  :      400.00
  volume of cell :      629.34
      direct lattice vectors                 reciprocal lattice vectors
     5.133595467  0.000000000  0.000000000     0.194795248 -0.112465089  0.000000000
     2.566797733  4.445824087  0.000000000     0.000000000  0.224930177  0.000000000
     0.000000000  0.000000000 27.574689865     0.000000000  0.000000000  0.036265140

  length of vectors
     5.133595467  5.133595467 27.574689865     0.224930177  0.224930177  0.036265140


 
 k-points in units of 2pi/SCALE and weight: Auto-mesh                               
   0.00000000  0.00000000  0.00000000       0.111
   0.06493175 -0.03748836  0.00000000       0.667
  -0.06493175  0.11246509  0.00000000       0.222
 
 k-points in reciprocal lattice and weights: Auto-mesh                               
   0.00000000  0.00000000  0.00000000       0.111
   0.33333333 -0.00000000  0.00000000       0.667
  -0.33333333  0.33333333  0.00000000       0.222
 
 position of ions in fractional coordinates (direct lattice) 
   0.00000000  0.00000000  0.00000000
   0.00000000  0.50000000  0.00000000
   0.50000000  0.00000000  0.00000000
   0.50000000  0.50000000  0.00000000
   0.16666667  0.16666667  0.07600381
   0.16666667  0.66666667  0.07600381
   0.66666667  0.16666667  0.07600381
   0.66666667  0.66666667  0.07600381
   0.33333333  0.33333333  0.15200763
   0.33333333  0.83333333  0.15200763
   0.83333333  0.33333333  0.15200763
   0.83333333  0.83333333  0.15200763
   0.00000000  0.00000000  0.22801144
   0.00000000  0.50000000  0.22801144
   0.50000000  0.00000000  0.22801144
   0.50000000  0.50000000  0.22801144
   0.16666667  0.16666667  0.30401525
   0.16666667  0.66666667  0.30401525
   0.66666667  0.16666667  0.30401525
   0.66666667  0.66666667  0.30401525
   0.33333333  0.33333333  0.38001907
   0.33333333  0.83333333  0.38001907
   0.83333333  0.33333333  0.38001907
   0.83333333  0.83333333  0.38001907
   0.00000000  0.00000000  0.45602288
   0.00000000  0.50000000  0.45602288
   0.50000000  0.00000000  0.45602288
   0.50000000  0.50000000  0.45602288
 
 position of ions in cartesian coordinates  (Angst):
   0.00000000  0.00000000  0.00000000
   1.28339887  2.22291204  0.00000000
   2.56679773  0.00000000  0.00000000
   3.85019660  2.22291204  0.00000000
   1.28339887  0.74097068  2.09578159
   2.56679773  2.96388272  2.09578159
   3.85019660  0.74097068  2.09578159
   5.13359547  2.96388272  2.09578159
   2.56679773  1.48194136  4.19156317
   3.85019660  3.70485341  4.19156317
   5.13359547  1.48194136  4.19156317
   6.41699433  3.70485341  4.19156317
   0.00000000  0.00000000  6.28734476
   1.28339887  2.22291204  6.28734476
   2.56679773  0.00000000  6.28734476
   3.85019660  2.22291204  6.28734476
   1.28339887  0.74097068  8.38312635
   2.56679773  2.96388272  8.38312635
   3.85019660  0.74097068  8.38312635
   5.13359547  2.96388272  8.38312635
   2.56679773  1.48194136 10.47890793
   3.85019660  3.70485341 10.47890793
   5.13359547  1.48194136 10.47890793
   6.41699433  3.70485341 10.47890793
   0.00000000  0.00000000 12.57468952
   1.28339887  2.22291204 12.57468952
   2.56679773  0.00000000 12.57468952
   3.85019660  2.22291204 12.57468952
 


--------------------------------------------------------------------------------------------------------


 k-point   1 :   0.0000 0.0000 0.0000  plane waves:   11471
 k-point   2 :   0.3333-0.0000 0.0000  plane waves:   11452
 k-point   3 :  -0.3333 0.3333 0.0000  plane waves:   11424

 maximum and minimum number of plane-waves per node :      2319     2270

 maximum number of plane-waves:     11471
 maximum index in each direction: 
   IXMAX=    8   IYMAX=    8   IZMAX=   44
   IXMIN=   -8   IYMIN=   -8   IZMIN=  -44


 parallel 3D FFT for wavefunctions:
    minimum data exchange during FFTs selected (reduces bandwidth)
 parallel 3D FFT for charge:
    minimum data exchange during FFTs selected (reduces bandwidth)


 total amount of memory used by VASP MPI-rank0    51466. kBytes
=======================================================================

   base      :      30000. kBytes
   nonl-proj :       2041. kBytes
   fftplans  :       2293. kBytes
   grid      :       5292. kBytes
   one-center:        186. kBytes
   wavefun   :      11654. kBytes
 
     INWAV:  cpu time      0.0000: real time      0.0005
 Broyden mixing: mesh for mixing (old mesh)
   NGX = 17   NGY = 17   NGZ = 89
  (NGX  = 56   NGY  = 56   NGZ  =280)
  gives a total of  25721 points

 initial charge density was supplied:
 charge density of overlapping atoms calculated
 number of electron     308.0000000 magnetization      28.0000000
 keeping initial charge density in first step


--------------------------------------------------------------------------------------------------------


 Maximum index for augmentation-charges          342 (set IRDMAX)


--------------------------------------------------------------------------------------------------------


 First call to EWALD:  gamma=   0.207
 Maximum number of real-space cells 5x 5x 1
 Maximum number of reciprocal cells 2x 2x 8

    FEWALD:  cpu time      0.0021: real time      0.0021


--------------------------------------- Iteration      1(   1)  ---------------------------------------


    POTLOK:  cpu time      0.0613: real time      0.0619
    SETDIJ:  cpu time      0.0172: real time      0.0172
     EDDAV:  cpu time      3.3624: real time      3.3922
       DOS:  cpu time      0.0016: real time      0.0016
    --------------------------------------------
      LOOP:  cpu time      3.4424: real time      3.4729

 eigenvalue-minimisations  :  2400
 total energy-change (2. order) : 0.2942420E+04  (-0.1100937E+05)
 number of electron     308.0000000 magnetization      28.0000000
 augmentation part      308.0000000 magnetization      28.0000000

 Free energy of the ion-electron system (eV)
  ---------------------------------------------------
  alpha Z        PSCENC =       911.05318809
  Ewald energy   TEWEN  =    162852.28015667
  -Hartree energ DENC   =   -201168.72018587
  -exchange      EXHF   =         0.00000000
  -V(xc)+E(xc)   XCENC  =      1280.32519254
  PAW double counting   =     34386.72988937   -37349.78608270
  entropy T*S    EENTRO =         0.02867578
  eigenvalues    EBANDS =      3083.69536889
  atomic energy  EATOM  =     38946.81392559
  Solvation  Ediel_sol  =         0.00000000
  ---------------------------------------------------
  free energy    TOTEN  =      2942.42012836 eV

  energy without entropy =     2942.39145258  energy(sigma->0) =     2942.41056976


--------------------------------------------------------------------------------------------------------




--------------------------------------- Iteration      1(   2)  ---------------------------------------


     EDDAV:  cpu time      3.2919: real time      3.3211
       DOS:  cpu time      0.0018: real time      0.0018
    --------------------------------------------
      LOOP:  cpu time      3.2936: real time      3.3229

 eigenvalue-minimisations  :  2400
 total energy-change (2. order) :-0.2558945E+04  (-0.2450189E+04)
 number of electron     308.0000000 magnetization      28.0000000
 augmentation part      308.0000000 magnetization      28.0000000

 Free energy of the ion-electron system (eV)
  ---------------------------------------------------
  alpha Z        PSCENC =       911.05318809
  Ewald energy   TEWEN  =    162852.28015667
  -Hartree energ DENC   =   -201168.72018587
  -exchange      EXHF   =         0.00000000
  -V(xc)+E(xc)   XCENC  =      1280.32519254
  PAW double counting   =     34386.72988937   -37349.78608270
  entropy T*S    EENTRO =         0.00400106
  eigenvalues    EBANDS =       524.77473113
  atomic energy  EATOM  =     38946.81392559
  Solvation  Ediel_sol  =         0.00000000
  ---------------------------------------------------
  free energy    TOTEN  =       383.47481588 eV

  energy without entropy =      383.47081482  energy(sigma->0) =      383.47348219


--------------------------------------------------------------------------------------------------------




--------------------------------------- Iteration      1(   3)  ---------------------------------------


     EDDAV:  cpu time      3.2761: real time      3.3036
       DOS:  cpu time      0.0017: real time      0.0017
    --------------------------------------------
      LOOP:  cpu time      3.2778: real time      3.3053

 eigenvalue-minimisations  :  2400
 total energy-change (2. order) :-0.4681825E+03  (-0.4242777E+03)
 number of electron     308.0000000 magnetization      28.0000000
 augmentation part      308.0000000 magnetization      28.0000000

 Free energy of the ion-electron system (eV)
  ---------------------------------------------------
  alpha Z        PSCENC =       911.05318809
  Ewald energy   TEWEN  =    162852.28015667
  -Hartree energ DENC   =   -201168.72018587
  -exchange      EXHF   =         0.00000000
  -V(xc)+E(xc)   XCENC  =      1280.32519254
  PAW double counting   =     34386.72988937   -37349.78608270
  entropy T*S    EENTRO =         0.01388609
  eigenvalues    EBANDS =        56.58235748
  atomic energy  EATOM  =     38946.81392559
  Solvation  Ediel_sol  =         0.00000000
  ---------------------------------------------------
  free energy    TOTEN  =       -84.70767274 eV

  energy without entropy =      -84.72155883  energy(sigma->0) =      -84.71230143


--------------------------------------------------------------------------------------------------------




--------------------------------------- Iteration      1(   4)  ---------------------------------------


     EDDAV:  cpu time      3.5049: real time      3.5354
       DOS:  cpu time      0.0018: real time      0.0019
    --------------------------------------------
      LOOP:  cpu time      3.5067: real time      3.5373

 eigenvalue-minimisations  :  2608
 total energy-change (2. order) :-0.3425169E+02  (-0.3300385E+02)
 number of electron     308.0000000 magnetization      28.0000000
 augmentation part      308.0000000 magnetization      28.0000000

 Free energy of the ion-electron system (eV)
  ---------------------------------------------------
  alpha Z        PSCENC =       911.05318809
  Ewald energy   TEWEN  =    162852.28015667
  -Hartree energ DENC   =   -201168.72018587
  -exchange      EXHF   =         0.00000000
  -V(xc)+E(xc)   XCENC  =      1280.32519254
  PAW double counting   =     34386.72988937   -37349.78608270
  entropy T*S    EENTRO =         0.00769861
  eigenvalues    EBANDS =        22.33685881
  atomic energy  EATOM  =     38946.81392559
  Solvation  Ediel_sol  =         0.00000000
  ---------------------------------------------------
  free energy    TOTEN  =      -118.95935889 eV

  energy without entropy =     -118.96705750  energy(sigma->0) =     -118.96192509


--------------------------------------------------------------------------------------------------------




--------------------------------------- Iteration      1(   5)  ---------------------------------------


     EDDAV:  cpu time      3.5319: real time      3.5610
       DOS:  cpu time      0.0022: real time      0.0022
    CHARGE:  cpu time      0.3923: real time      0.3944
    MIXING:  cpu time      0.0118: real time      0.0118
    --------------------------------------------
      LOOP:  cpu time      3.9382: real time      3.9694

 eigenvalue-minimisations  :  2656
 total energy-change (2. order) :-0.7873735E+00  (-0.7854343E+00)
 number of electron     308.0000027 magnetization      26.2674019
 augmentation part      181.6824277 magnetization      25.4504763

 Broyden mixing:
  rms(total) = 0.48717E+01    rms(broyden)= 0.48716E+01
  rms(prec ) = 0.50013E+01
  weight for this iteration     100.00

 Free energy of the ion-electron system (eV)
  ---------------------------------------------------
  alpha Z        PSCENC =       911.05318809
  Ewald energy   TEWEN  =    162852.28015667
  -Hartree energ DENC   =   -201168.72018587
  -exchange      EXHF   =         0.00000000
  -V(xc)+E(xc)   XCENC  =      1280.32519254
  PAW double counting   =     34386.72988937   -37349.78608270
  entropy T*S    EENTRO =         0.00837859
  eigenvalues    EBANDS =        21.54880537
  atomic energy  EATOM  =     38946.81392559
  Solvation  Ediel_sol  =         0.00000000
  ---------------------------------------------------
  free energy    TOTEN  =      -119.74673235 eV

  energy without entropy =     -119.75511093  energy(sigma->0) =     -119.74952521


--------------------------------------------------------------------------------------------------------




--------------------------------------- Iteration      1(   6)  ---------------------------------------


    POTLOK:  cpu time      0.0640: real time      0.0645
    SETDIJ:  cpu time      0.0142: real time      0.0142
     EDDAV:  cpu time      3.4944: real time      3.5232
       DOS:  cpu time      0.0017: real time      0.0017
    CHARGE:  cpu time      0.3852: real time      0.3874
    MIXING:  cpu time      0.0115: real time      0.0115
    --------------------------------------------
      LOOP:  cpu time      3.9709: real time      4.0025

 eigenvalue-minimisations  :  2624
 total energy-change (2. order) : 0.1950442E+02  (-0.2734812E+02)
 number of electron     308.0000025 magnetization      25.0975839
 augmentation part      205.9505153 magnetization      18.9616322

 Broyden mixing:
  rms(total) = 0.25978E+01    rms(broyden)= 0.25977E+01
  rms(prec ) = 0.26900E+01
  weight for this iteration     100.00

 eigenvalues of (default mixing * dielectric matrix)
  average eigenvalue GAMMA=   0.7834
  0.7834

 Free energy of the ion-electron system (eV)
  ---------------------------------------------------
  alpha Z        PSCENC =       911.05318809
  Ewald energy   TEWEN  =    162852.28015667
  -Hartree energ DENC   =   -200362.08968679
  -exchange      EXHF   =         0.00000000
  -V(xc)+E(xc)   XCENC  =      1245.20100783
  PAW double counting   =     34790.31946586   -37597.20511135
  entropy T*S    EENTRO =         0.01461575
  eigenvalues    EBANDS =      -886.62987230
  atomic energy  EATOM  =     38946.81392559
  Solvation  Ediel_sol  =         0.00000000
  ---------------------------------------------------
  free energy    TOTEN  =      -100.24231064 eV

  energy without entropy =     -100.25692639  energy(sigma->0) =     -100.24718256


--------------------------------------------------------------------------------------------------------




--------------------------------------- Iteration      1(   7)  ---------------------------------------


    POTLOK:  cpu time      0.0578: real time      0.0591
    SETDIJ:  cpu time      0.0119: real time      0.0119
     EDDAV:  cpu time      3.5024: real time      3.5324
       DOS:  cpu time      0.0036: real time      0.0036
    CHARGE:  cpu time      0.3914: real time      0.3935
    MIXING:  cpu time      0.0120: real time      0.0120
    --------------------------------------------
      LOOP:  cpu time      3.9791: real time      4.0126

 eigenvalue-minimisations  :  2632
 total energy-change (2. order) : 0.1445381E+02  (-0.6113502E+01)
 number of electron     308.0000026 magnetization      24.1646827
 augmentation part      197.4184005 magnetization      16.9283805

 Broyden mixing:
  rms(total) = 0.12980E+01    rms(broyden)= 0.12980E+01
  rms(prec ) = 0.14200E+01
  weight for this iteration     100.00

 eigenvalues of (default mixing * dielectric matrix)
  average eigenvalue GAMMA=   0.7842
  0.9320  0.6364

 Free energy of the ion-electron system (eV)
  ---------------------------------------------------
  alpha Z        PSCENC =       911.05318809
  Ewald energy   TEWEN  =    162852.28015667
  -Hartree energ DENC   =   -200808.85927574
  -exchange      EXHF   =         0.00000000
  -V(xc)+E(xc)   XCENC  =      1261.34337907
  PAW double counting   =     35514.51572292   -38466.34782000
  entropy T*S    EENTRO =        -0.09526266
  eigenvalues    EBANDS =      -296.49251257
  atomic energy  EATOM  =     38946.81392559
  Solvation  Ediel_sol  =         0.00000000
  ---------------------------------------------------
  free energy    TOTEN  =       -85.78849863 eV

  energy without entropy =      -85.69323597  energy(sigma->0) =      -85.75674441


--------------------------------------------------------------------------------------------------------




--------------------------------------- Iteration      1(   8)  ---------------------------------------


    POTLOK:  cpu time      0.0576: real time      0.0580
    SETDIJ:  cpu time      0.0122: real time      0.0122
     EDDAV:  cpu time      3.6827: real time      3.7134
       DOS:  cpu time      0.0017: real time      0.0017
    CHARGE:  cpu time      0.3703: real time      0.3719
    MIXING:  cpu time      0.0128: real time      0.0129
    --------------------------------------------
      LOOP:  cpu time      4.1373: real time      4.1702

 eigenvalue-minimisations  :  2808
 total energy-change (2. order) :-0.1551512E+01  (-0.2723205E+01)
 number of electron     308.0000045 magnetization      22.8101890
 augmentation part      196.1945484 magnetization      16.9249109

 Broyden mixing:
  rms(total) = 0.15604E+01    rms(broyden)= 0.15603E+01
  rms(prec ) = 0.18241E+01
  weight for this iteration     100.00

 eigenvalues of (default mixing * dielectric matrix)
  average eigenvalue GAMMA=   0.6699
  1.1265  0.6450  0.2382

 Free energy of the ion-electron system (eV)
  ---------------------------------------------------
  alpha Z        PSCENC =       911.05318809
  Ewald energy   TEWEN  =    162852.28015667
  -Hartree energ DENC   =   -200676.30891844
  -exchange      EXHF   =         0.00000000
  -V(xc)+E(xc)   XCENC  =      1262.22501212
  PAW double counting   =     35811.31912042   -38790.09157674
  entropy T*S    EENTRO =        -0.01267331
  eigenvalues    EBANDS =      -404.61824486
  atomic energy  EATOM  =     38946.81392559
  Solvation  Ediel_sol  =         0.00000000
  ---------------------------------------------------
  free energy    TOTEN  =       -87.34001046 eV

  energy without entropy =      -87.32733715  energy(sigma->0) =      -87.33578603


--------------------------------------------------------------------------------------------------------




--------------------------------------- Iteration      1(   9)  ---------------------------------------


    POTLOK:  cpu time      0.0576: real time      0.0589
    SETDIJ:  cpu time      0.0121: real time      0.0122
     EDDAV:  cpu time      4.2109: real time      4.2455
       DOS:  cpu time      0.0032: real time      0.0032
    CHARGE:  cpu time      0.3865: real time      0.3886
    MIXING:  cpu time      0.0124: real time      0.0124
    --------------------------------------------
      LOOP:  cpu time      4.6826: real time      4.7208

 eigenvalue-minimisations  :  3296
 total energy-change (2. order) : 0.4290434E+01  (-0.7877113E+00)
 number of electron     308.0000021 magnetization      21.6283256
 augmentation part      195.9013455 magnetization      14.4138197

 Broyden mixing:
  rms(total) = 0.99602E+00    rms(broyden)= 0.99597E+00
  rms(prec ) = 0.10050E+01
  weight for this iteration     100.00

 eigenvalues of (default mixing * dielectric matrix)
  average eigenvalue GAMMA=   0.6357
  0.9778  0.6620  0.6620  0.2408

 Free energy of the ion-electron system (eV)
  ---------------------------------------------------
  alpha Z        PSCENC =       911.05318809
  Ewald energy   TEWEN  =    162852.28015667
  -Hartree energ DENC   =   -200789.77413787
  -exchange      EXHF   =         0.00000000
  -V(xc)+E(xc)   XCENC  =      1262.81843933
  PAW double counting   =     36169.07213532   -39175.25068996
  entropy T*S    EENTRO =        -0.05161620
  eigenvalues    EBANDS =      -260.01097750
  atomic energy  EATOM  =     38946.81392559
  Solvation  Ediel_sol  =         0.00000000
  ---------------------------------------------------
  free energy    TOTEN  =       -83.04957654 eV

  energy without entropy =      -82.99796034  energy(sigma->0) =      -83.03237114


--------------------------------------------------------------------------------------------------------




--------------------------------------- Iteration      1(  10)  ---------------------------------------


    POTLOK:  cpu time      0.0581: real time      0.0586
    SETDIJ:  cpu time      0.0122: real time      0.0123
     EDDAV:  cpu time      4.3762: real time      4.4121
       DOS:  cpu time      0.0017: real time      0.0017
    CHARGE:  cpu time      0.3706: real time      0.3727
    MIXING:  cpu time      0.0129: real time      0.0129
    --------------------------------------------
      LOOP:  cpu time      4.8317: real time      4.8702

 eigenvalue-minimisations  :  3496
 total energy-change (2. order) :-0.1722435E+01  (-0.2389218E+00)
 number of electron     308.0000041 magnetization      15.7042990
 augmentation part      196.2825393 magnetization       9.4202767

 Broyden mixing:
  rms(total) = 0.97396E+00    rms(broyden)= 0.97395E+00
  rms(prec ) = 0.99932E+00
  weight for this iteration     100.00

 eigenvalues of (default mixing * dielectric matrix)
  average eigenvalue GAMMA=   0.8507
  1.6172  1.2382  0.7221  0.4405  0.2358

 Free energy of the ion-electron system (eV)
  ---------------------------------------------------
  alpha Z        PSCENC =       911.05318809
  Ewald energy   TEWEN  =    162852.28015667
  -Hartree energ DENC   =   -200746.72356954
  -exchange      EXHF   =         0.00000000
  -V(xc)+E(xc)   XCENC  =      1260.08259554
  PAW double counting   =     36342.94546285   -39350.02799568
  entropy T*S    EENTRO =        -0.10316758
  eigenvalues    EBANDS =      -301.09260722
  atomic energy  EATOM  =     38946.81392559
  Solvation  Ediel_sol  =         0.00000000
  ---------------------------------------------------
  free energy    TOTEN  =       -84.77201128 eV

  energy without entropy =      -84.66884370  energy(sigma->0) =      -84.73762209


--------------------------------------------------------------------------------------------------------




--------------------------------------- Iteration      1(  11)  ---------------------------------------


    POTLOK:  cpu time      0.0574: real time      0.0579
    SETDIJ:  cpu time      0.0149: real time      0.0150
     EDDAV:  cpu time      3.9649: real time      3.9980
       DOS:  cpu time      0.0017: real time      0.0017
    CHARGE:  cpu time      0.3824: real time      0.3841
    MIXING:  cpu time      0.0120: real time      0.0121
    --------------------------------------------
      LOOP:  cpu time      4.4333: real time      4.4686

 eigenvalue-minimisations  :  3096
 total energy-change (2. order) :-0.3303842E+01  (-0.5290453E+00)
 number of electron     308.0000025 magnetization      13.0317024
 augmentation part      197.8442177 magnetization       8.1397315

 Broyden mixing:
  rms(total) = 0.83969E+00    rms(broyden)= 0.83965E+00
  rms(prec ) = 0.94475E+00
  weight for this iteration     100.00

 eigenvalues of (default mixing * dielectric matrix)
  average eigenvalue GAMMA=   1.1178
  3.7523  1.0281  0.6402  0.6402  0.4108  0.2352

 Free energy of the ion-electron system (eV)
  ---------------------------------------------------
  alpha Z        PSCENC =       911.05318809
  Ewald energy   TEWEN  =    162852.28015667
  -Hartree energ DENC   =   -200758.35047356
  -exchange      EXHF   =         0.00000000
  -V(xc)+E(xc)   XCENC  =      1252.74073493
  PAW double counting   =     37090.24076220   -40113.35487315
  entropy T*S    EENTRO =        -0.04200070
  eigenvalues    EBANDS =      -269.45727379
  atomic energy  EATOM  =     38946.81392559
  Solvation  Ediel_sol  =         0.00000000
  ---------------------------------------------------
  free energy    TOTEN  =       -88.07585372 eV

  energy without entropy =      -88.03385301  energy(sigma->0) =      -88.06185348


--------------------------------------------------------------------------------------------------------




--------------------------------------- Iteration      1(  12)  ---------------------------------------


    POTLOK:  cpu time      0.0568: real time      0.0585
    SETDIJ:  cpu time      0.0120: real time      0.0120
     EDDAV:  cpu time      4.1361: real time      4.1703
       DOS:  cpu time      0.0018: real time      0.0018
    CHARGE:  cpu time      0.3712: real time      0.3732
    MIXING:  cpu time      0.0133: real time      0.0133
    --------------------------------------------
      LOOP:  cpu time      4.5911: real time      4.6291

 eigenvalue-minimisations  :  3272
 total energy-change (2. order) :-0.1879591E+01  (-0.1186613E+01)
 number of electron     308.0000027 magnetization      10.3099889
 augmentation part      197.6161431 magnetization       5.8559633

 Broyden mixing:
  rms(total) = 0.95029E+00    rms(broyden)= 0.95020E+00
  rms(prec ) = 0.15601E+01
  weight for this iteration     100.00

 eigenvalues of (default mixing * dielectric matrix)
  average eigenvalue GAMMA=   1.0754
  4.3940  1.0071  0.6507  0.6507  0.4264  0.2345  0.1647

 Free energy of the ion-electron system (eV)
  ---------------------------------------------------
  alpha Z        PSCENC =       911.05318809
  Ewald energy   TEWEN  =    162852.28015667
  -Hartree energ DENC   =   -200800.27433192
  -exchange      EXHF   =         0.00000000
  -V(xc)+E(xc)   XCENC  =      1252.54069502
  PAW double counting   =     37338.54660949   -40375.37999404
  entropy T*S    EENTRO =         0.02222071
  eigenvalues    EBANDS =      -215.55791437
  atomic energy  EATOM  =     38946.81392559
  Solvation  Ediel_sol  =         0.00000000
  ---------------------------------------------------
  free energy    TOTEN  =       -89.95544476 eV

  energy without entropy =      -89.97766547  energy(sigma->0) =      -89.96285166


--------------------------------------------------------------------------------------------------------




--------------------------------------- Iteration      1(  13)  ---------------------------------------


    POTLOK:  cpu time      0.0619: real time      0.0623
    SETDIJ:  cpu time      0.0147: real time      0.0148
     EDDAV:  cpu time      4.6896: real time      4.7283
       DOS:  cpu time      0.0017: real time      0.0017
    CHARGE:  cpu time      0.3858: real time      0.3880
    MIXING:  cpu time      0.0125: real time      0.0126
    --------------------------------------------
      LOOP:  cpu time      5.1662: real time      5.2077

 eigenvalue-minimisations  :  3816
 total energy-change (2. order) : 0.2527369E+01  (-0.1013741E+01)
 number of electron     308.0000033 magnetization       6.4177761
 augmentation part      197.8410038 magnetization       2.5838622

 Broyden mixing:
  rms(total) = 0.64357E+00    rms(broyden)= 0.64350E+00
  rms(prec ) = 0.67911E+00
  weight for this iteration     100.00

 eigenvalues of (default mixing * dielectric matrix)
  average eigenvalue GAMMA=   1.3515
  6.7348  1.0580  0.8365  0.8365  0.5993  0.3856  0.2355  0.1259

 Free energy of the ion-electron system (eV)
  ---------------------------------------------------
  alpha Z        PSCENC =       911.05318809
  Ewald energy   TEWEN  =    162852.28015667
  -Hartree energ DENC   =   -200835.97082668
  -exchange      EXHF   =         0.00000000
  -V(xc)+E(xc)   XCENC  =      1252.80810783
  PAW double counting   =     37538.17021468   -40588.37411862
  entropy T*S    EENTRO =        -0.04373929
  eigenvalues    EBANDS =      -164.16498445
  atomic energy  EATOM  =     38946.81392559
  Solvation  Ediel_sol  =         0.00000000
  ---------------------------------------------------
  free energy    TOTEN  =       -87.42807618 eV

  energy without entropy =      -87.38433689  energy(sigma->0) =      -87.41349642


--------------------------------------------------------------------------------------------------------




--------------------------------------- Iteration      1(  14)  ---------------------------------------


    POTLOK:  cpu time      0.0570: real time      0.0592
    SETDIJ:  cpu time      0.0120: real time      0.0121
     EDDAV:  cpu time      4.0120: real time      4.0453
       DOS:  cpu time      0.0017: real time      0.0017
    CHARGE:  cpu time      0.4011: real time      0.4029
    MIXING:  cpu time      0.0146: real time      0.0147
    --------------------------------------------
      LOOP:  cpu time      4.4985: real time      4.5358

 eigenvalue-minimisations  :  3112
 total energy-change (2. order) :-0.1481684E+01  (-0.2738412E+00)
 number of electron     308.0000026 magnetization       4.5271731
 augmentation part      196.9118014 magnetization       1.6134160

 Broyden mixing:
  rms(total) = 0.35025E+00    rms(broyden)= 0.35023E+00
  rms(prec ) = 0.41804E+00
  weight for this iteration     100.00

 eigenvalues of (default mixing * dielectric matrix)
  average eigenvalue GAMMA=   1.6301
  9.5203  1.4105  0.8686  0.8686  0.6293  0.6293  0.3847  0.2354  0.1244

 Free energy of the ion-electron system (eV)
  ---------------------------------------------------
  alpha Z        PSCENC =       911.05318809
  Ewald energy   TEWEN  =    162852.28015667
  -Hartree energ DENC   =   -200903.09981397
  -exchange      EXHF   =         0.00000000
  -V(xc)+E(xc)   XCENC  =      1254.08268316
  PAW double counting   =     37393.39919592   -40447.10980727
  entropy T*S    EENTRO =         0.00807107
  eigenvalues    EBANDS =       -96.33735966
  atomic energy  EATOM  =     38946.81392559
  Solvation  Ediel_sol  =         0.00000000
  ---------------------------------------------------
  free energy    TOTEN  =       -88.90976041 eV

  energy without entropy =      -88.91783148  energy(sigma->0) =      -88.91245077


--------------------------------------------------------------------------------------------------------




--------------------------------------- Iteration      1(  15)  ---------------------------------------


    POTLOK:  cpu time      0.0602: real time      0.0607
    SETDIJ:  cpu time      0.0122: real time      0.0122
     EDDAV:  cpu time      3.7613: real time      3.7931
       DOS:  cpu time      0.0018: real time      0.0018
    CHARGE:  cpu time      0.3911: real time      0.3931
    MIXING:  cpu time      0.0082: real time      0.0082
    --------------------------------------------
      LOOP:  cpu time      4.2347: real time      4.2690

 eigenvalue-minimisations  :  2936
 total energy-change (2. order) :-0.2391428E+01  (-0.3137256E+00)
 number of electron     308.0000033 magnetization       3.5377473
 augmentation part      196.3799245 magnetization       1.3372831

 Broyden mixing:
  rms(total) = 0.34135E+00    rms(broyden)= 0.34131E+00
  rms(prec ) = 0.39975E+00
  weight for this iteration     100.00

 eigenvalues of (default mixing * dielectric matrix)
  average eigenvalue GAMMA=   1.7455
 11.5687  1.7889  0.8948  0.7108  0.7108  0.6997  0.2353  0.3858  0.3359  0.1241

 Free energy of the ion-electron system (eV)
  ---------------------------------------------------
  alpha Z        PSCENC =       911.05318809
  Ewald energy   TEWEN  =    162852.28015667
  -Hartree energ DENC   =   -200915.60883675
  -exchange      EXHF   =         0.00000000
  -V(xc)+E(xc)   XCENC  =      1253.84712236
  PAW double counting   =     37115.99083940   -40159.86154171
  entropy T*S    EENTRO =         0.01423993
  eigenvalues    EBANDS =       -95.83028157
  atomic energy  EATOM  =     38946.81392559
  Solvation  Ediel_sol  =         0.00000000
  ---------------------------------------------------
  free energy    TOTEN  =       -91.30118799 eV

  energy without entropy =      -91.31542792  energy(sigma->0) =      -91.30593463


--------------------------------------------------------------------------------------------------------




--------------------------------------- Iteration      1(  16)  ---------------------------------------


    POTLOK:  cpu time      0.0558: real time      0.0563
    SETDIJ:  cpu time      0.0119: real time      0.0119
     EDDAV:  cpu time      3.9624: real time      3.9958
       DOS:  cpu time      0.0018: real time      0.0018
    CHARGE:  cpu time      0.3979: real time      0.3995
    MIXING:  cpu time      0.0132: real time      0.0132
    --------------------------------------------
      LOOP:  cpu time      4.4429: real time      4.4786

 eigenvalue-minimisations  :  3136
 total energy-change (2. order) :-0.1633478E+01  (-0.1619443E+00)
 number of electron     308.0000030 magnetization       3.0283891
 augmentation part      196.2395048 magnetization       1.3193539

 Broyden mixing:
  rms(total) = 0.22764E+00    rms(broyden)= 0.22762E+00
  rms(prec ) = 0.25496E+00
  weight for this iteration     100.00

 eigenvalues of (default mixing * dielectric matrix)
  average eigenvalue GAMMA=   1.7835
 12.7264  2.0807  0.9361  0.7848  0.7848  0.6870  0.5820  0.3826  0.2355  0.2950
  0.1241

 Free energy of the ion-electron system (eV)
  ---------------------------------------------------
  alpha Z        PSCENC =       911.05318809
  Ewald energy   TEWEN  =    162852.28015667
  -Hartree energ DENC   =   -200902.35522497
  -exchange      EXHF   =         0.00000000
  -V(xc)+E(xc)   XCENC  =      1253.22116551
  PAW double counting   =     36892.04564762   -39925.21535612
  entropy T*S    EENTRO =         0.00791732
  eigenvalues    EBANDS =      -120.78608612
  atomic energy  EATOM  =     38946.81392559
  Solvation  Ediel_sol  =         0.00000000
  ---------------------------------------------------
  free energy    TOTEN  =       -92.93466641 eV

  energy without entropy =      -92.94258374  energy(sigma->0) =      -92.93730552


--------------------------------------------------------------------------------------------------------




--------------------------------------- Iteration      1(  17)  ---------------------------------------


    POTLOK:  cpu time      0.0558: real time      0.0575
    SETDIJ:  cpu time      0.0119: real time      0.0120
     EDDAV:  cpu time      3.9758: real time      4.0090
       DOS:  cpu time      0.0018: real time      0.0018
    CHARGE:  cpu time      0.3828: real time      0.3849
    MIXING:  cpu time      0.0140: real time      0.0141
    --------------------------------------------
      LOOP:  cpu time      4.4421: real time      4.4793

 eigenvalue-minimisations  :  3152
 total energy-change (2. order) :-0.1620133E+01  (-0.1266230E+00)
 number of electron     308.0000029 magnetization       2.7290533
 augmentation part      196.3626060 magnetization       1.4152524

 Broyden mixing:
  rms(total) = 0.15040E+00    rms(broyden)= 0.15038E+00
  rms(prec ) = 0.15871E+00
  weight for this iteration     100.00

 eigenvalues of (default mixing * dielectric matrix)
  average eigenvalue GAMMA=   1.7602
 13.1571  2.4189  0.9056  0.9056  0.9333  0.6791  0.5603  0.5220  0.3891  0.2354
  0.2919  0.1241

 Free energy of the ion-electron system (eV)
  ---------------------------------------------------
  alpha Z        PSCENC =       911.05318809
  Ewald energy   TEWEN  =    162852.28015667
  -Hartree energ DENC   =   -200879.09074445
  -exchange      EXHF   =         0.00000000
  -V(xc)+E(xc)   XCENC  =      1252.14601202
  PAW double counting   =     36703.52385886   -39724.75187237
  entropy T*S    EENTRO =         0.00214378
  eigenvalues    EBANDS =      -156.53146780
  atomic energy  EATOM  =     38946.81392559
  Solvation  Ediel_sol  =         0.00000000
  ---------------------------------------------------
  free energy    TOTEN  =       -94.55479960 eV

  energy without entropy =      -94.55694338  energy(sigma->0) =      -94.55551420


--------------------------------------------------------------------------------------------------------




--------------------------------------- Iteration      1(  18)  ---------------------------------------


    POTLOK:  cpu time      0.0566: real time      0.0571
    SETDIJ:  cpu time      0.0119: real time      0.0120
     EDDAV:  cpu time      3.8486: real time      3.8810
       DOS:  cpu time      0.0031: real time      0.0031
    CHARGE:  cpu time      0.3937: real time      0.3953
    MIXING:  cpu time      0.0136: real time      0.0137
    --------------------------------------------
      LOOP:  cpu time      4.3275: real time      4.3621

 eigenvalue-minimisations  :  3016
 total energy-change (2. order) :-0.1114146E+01  (-0.8509903E-01)
 number of electron     308.0000028 magnetization       2.3721253
 augmentation part      196.5440537 magnetization       1.4130474

 Broyden mixing:
  rms(total) = 0.14418E+00    rms(broyden)= 0.14415E+00
  rms(prec ) = 0.17347E+00
  weight for this iteration     100.00

 eigenvalues of (default mixing * dielectric matrix)
  average eigenvalue GAMMA=   1.7308
 13.3342  2.7267  0.9441  0.9441  0.9798  0.7320  0.7320  0.6713  0.4106  0.3772
  0.2354  0.2884  0.1241

 Free energy of the ion-electron system (eV)
  ---------------------------------------------------
  alpha Z        PSCENC =       911.05318809
  Ewald energy   TEWEN  =    162852.28015667
  -Hartree energ DENC   =   -200851.74316797
  -exchange      EXHF   =         0.00000000
  -V(xc)+E(xc)   XCENC  =      1251.34095944
  PAW double counting   =     36565.00898761   -39576.72025257
  entropy T*S    EENTRO =        -0.00435443
  eigenvalues    EBANDS =      -193.69838811
  atomic energy  EATOM  =     38946.81392559
  Solvation  Ediel_sol  =         0.00000000
  ---------------------------------------------------
  free energy    TOTEN  =       -95.66894569 eV

  energy without entropy =      -95.66459126  energy(sigma->0) =      -95.66749421


--------------------------------------------------------------------------------------------------------




--------------------------------------- Iteration      1(  19)  ---------------------------------------


    POTLOK:  cpu time      0.0573: real time      0.0578
    SETDIJ:  cpu time      0.0121: real time      0.0122
     EDDAV:  cpu time      3.9840: real time      4.0178
       DOS:  cpu time      0.0017: real time      0.0017
    CHARGE:  cpu time      0.3798: real time      0.3814
    MIXING:  cpu time      0.0148: real time      0.0148
    --------------------------------------------
      LOOP:  cpu time      4.4497: real time      4.4857

 eigenvalue-minimisations  :  3160
 total energy-change (2. order) :-0.7065145E+00  (-0.5494291E-01)
 number of electron     308.0000027 magnetization       1.8043502
 augmentation part      196.5448204 magnetization       1.1114743

 Broyden mixing:
  rms(total) = 0.11223E+00    rms(broyden)= 0.11221E+00
  rms(prec ) = 0.12183E+00
  weight for this iteration     100.00

 eigenvalues of (default mixing * dielectric matrix)
  average eigenvalue GAMMA=   1.7692
 13.6320  3.2131  1.7684  0.9037  0.9037  0.8994  0.7052  0.7052  0.6134  0.2354
  0.4057  0.3724  0.2868  0.1241

 Free energy of the ion-electron system (eV)
  ---------------------------------------------------
  alpha Z        PSCENC =       911.05318809
  Ewald energy   TEWEN  =    162852.28015667
  -Hartree energ DENC   =   -200828.25632062
  -exchange      EXHF   =         0.00000000
  -V(xc)+E(xc)   XCENC  =      1251.02116573
  PAW double counting   =     36512.67171156   -39522.43761030
  entropy T*S    EENTRO =        -0.01622018
  eigenvalues    EBANDS =      -219.50545675
  atomic energy  EATOM  =     38946.81392559
  Solvation  Ediel_sol  =         0.00000000
  ---------------------------------------------------
  free energy    TOTEN  =       -96.37546021 eV

  energy without entropy =      -96.35924003  energy(sigma->0) =      -96.37005348


--------------------------------------------------------------------------------------------------------




--------------------------------------- Iteration      1(  20)  ---------------------------------------


    POTLOK:  cpu time      0.0571: real time      0.0578
    SETDIJ:  cpu time      0.0136: real time      0.0138
     EDDAV:  cpu time      3.4595: real time      3.4882
       DOS:  cpu time      0.0036: real time      0.0036
    CHARGE:  cpu time      0.3983: real time      0.4000
    MIXING:  cpu time      0.0136: real time      0.0137
    --------------------------------------------
      LOOP:  cpu time      3.9458: real time      3.9772

 eigenvalue-minimisations  :  2624
 total energy-change (2. order) :-0.6736443E+00  (-0.3681658E-01)
 number of electron     308.0000027 magnetization       1.2657338
 augmentation part      196.5426565 magnetization       0.9043518

 Broyden mixing:
  rms(total) = 0.10329E+00    rms(broyden)= 0.10328E+00
  rms(prec ) = 0.12374E+00
  weight for this iteration     100.00

 eigenvalues of (default mixing * dielectric matrix)
  average eigenvalue GAMMA=   1.7900
 13.8777  3.1213  2.7536  0.9439  0.9439  0.9938  0.7377  0.7377  0.6922  0.6163
  0.4112  0.3748  0.2354  0.2871  0.1241

 Free energy of the ion-electron system (eV)
  ---------------------------------------------------
  alpha Z        PSCENC =       911.05318809
  Ewald energy   TEWEN  =    162852.28015667
  -Hartree energ DENC   =   -200790.07902960
  -exchange      EXHF   =         0.00000000
  -V(xc)+E(xc)   XCENC  =      1250.50594569
  PAW double counting   =     36497.16986695   -39507.95136637
  entropy T*S    EENTRO =        -0.02334125
  eigenvalues    EBANDS =      -256.81845031
  atomic energy  EATOM  =     38946.81392559
  Solvation  Ediel_sol  =         0.00000000
  ---------------------------------------------------
  free energy    TOTEN  =       -97.04910454 eV

  energy without entropy =      -97.02576330  energy(sigma->0) =      -97.04132413


--------------------------------------------------------------------------------------------------------




--------------------------------------- Iteration      1(  21)  ---------------------------------------


    POTLOK:  cpu time      0.0570: real time      0.0587
    SETDIJ:  cpu time      0.0122: real time      0.0122
     EDDAV:  cpu time      3.7313: real time      3.7623
       DOS:  cpu time      0.0027: real time      0.0027
    CHARGE:  cpu time      0.3871: real time      0.3891
    MIXING:  cpu time      0.0151: real time      0.0151
    --------------------------------------------
      LOOP:  cpu time      4.2053: real time      4.2401

 eigenvalue-minimisations  :  2904
 total energy-change (2. order) :-0.6518185E+00  (-0.2475774E-01)
 number of electron     308.0000028 magnetization       0.5461730
 augmentation part      196.4443873 magnetization       0.3345191

 Broyden mixing:
  rms(total) = 0.75456E-01    rms(broyden)= 0.75441E-01
  rms(prec ) = 0.85747E-01
  weight for this iteration     100.00

 eigenvalues of (default mixing * dielectric matrix)
  average eigenvalue GAMMA=   1.9124
 14.3288  5.5287  2.7147  1.1163  0.8919  0.8919  0.8995  0.7219  0.7219  0.7442
  0.6052  0.4110  0.3747  0.2354  0.2871  0.1241

 Free energy of the ion-electron system (eV)
  ---------------------------------------------------
  alpha Z        PSCENC =       911.05318809
  Ewald energy   TEWEN  =    162852.28015667
  -Hartree energ DENC   =   -200765.78023746
  -exchange      EXHF   =         0.00000000
  -V(xc)+E(xc)   XCENC  =      1249.75151031
  PAW double counting   =     36606.46055193   -39625.35085428
  entropy T*S    EENTRO =        -0.02402723
  eigenvalues    EBANDS =      -272.90513668
  atomic energy  EATOM  =     38946.81392559
  Solvation  Ediel_sol  =         0.00000000
  ---------------------------------------------------
  free energy    TOTEN  =       -97.70092305 eV

  energy without entropy =      -97.67689582  energy(sigma->0) =      -97.69291398


--------------------------------------------------------------------------------------------------------




--------------------------------------- Iteration      1(  22)  ---------------------------------------


    POTLOK:  cpu time      0.0574: real time      0.0579
    SETDIJ:  cpu time      0.0142: real time      0.0143
     EDDAV:  cpu time      4.0285: real time      4.0622
       DOS:  cpu time      0.0018: real time      0.0018
    CHARGE:  cpu time      0.3961: real time      0.3977
    MIXING:  cpu time      0.0139: real time      0.0140
    --------------------------------------------
      LOOP:  cpu time      4.5119: real time      4.5478

 eigenvalue-minimisations  :  3208
 total energy-change (2. order) :-0.6250150E+00  (-0.1804259E-01)
 number of electron     308.0000028 magnetization       0.7477513
 augmentation part      196.5513745 magnetization       0.7635517

 Broyden mixing:
  rms(total) = 0.66092E-01    rms(broyden)= 0.66078E-01
  rms(prec ) = 0.88942E-01
  weight for this iteration     100.00

 eigenvalues of (default mixing * dielectric matrix)
  average eigenvalue GAMMA=   1.8456
 14.1774  4.7422  3.2098  1.6874  0.8997  0.8997  0.9232  0.7944  0.7332  0.7332
  0.6010  0.5413  0.4110  0.3747  0.2354  0.2871  0.1241

 Free energy of the ion-electron system (eV)
  ---------------------------------------------------
  alpha Z        PSCENC =       911.05318809
  Ewald energy   TEWEN  =    162852.28015667
  -Hartree energ DENC   =   -200702.65620495
  -exchange      EXHF   =         0.00000000
  -V(xc)+E(xc)   XCENC  =      1249.08250976
  PAW double counting   =     36564.28823081   -39582.45364283
  entropy T*S    EENTRO =        -0.02457915
  eigenvalues    EBANDS =      -336.70952200
  atomic energy  EATOM  =     38946.81392559
  Solvation  Ediel_sol  =         0.00000000
  ---------------------------------------------------
  free energy    TOTEN  =       -98.32593801 eV

  energy without entropy =      -98.30135886  energy(sigma->0) =      -98.31774496


--------------------------------------------------------------------------------------------------------




--------------------------------------- Iteration      1(  23)  ---------------------------------------


    POTLOK:  cpu time      0.0559: real time      0.0572
    SETDIJ:  cpu time      0.0120: real time      0.0120
     EDDAV:  cpu time      4.2443: real time      4.2807
       DOS:  cpu time      0.0016: real time      0.0016
    CHARGE:  cpu time      0.3874: real time      0.3889
    MIXING:  cpu time      0.0152: real time      0.0153
    --------------------------------------------
      LOOP:  cpu time      4.7163: real time      4.7557

 eigenvalue-minimisations  :  3416
 total energy-change (2. order) :-0.3455608E+00  (-0.9960745E-02)
 number of electron     308.0000028 magnetization       0.2915972
 augmentation part      196.3886179 magnetization       0.1898584

 Broyden mixing:
  rms(total) = 0.53934E-01    rms(broyden)= 0.53921E-01
  rms(prec ) = 0.71962E-01
  weight for this iteration     100.00

 eigenvalues of (default mixing * dielectric matrix)
  average eigenvalue GAMMA=   1.9094
 14.5697  6.7742  3.0615  1.7747  0.9365  0.9365  0.9546  0.7253  0.7253  0.7186
  0.7186  0.5953  0.1241  0.2354  0.2871  0.3748  0.4128  0.4439

 Free energy of the ion-electron system (eV)
  ---------------------------------------------------
  alpha Z        PSCENC =       911.05318809
  Ewald energy   TEWEN  =    162852.28015667
  -Hartree energ DENC   =   -200733.51065678
  -exchange      EXHF   =         0.00000000
  -V(xc)+E(xc)   XCENC  =      1248.97937417
  PAW double counting   =     36590.04886738   -39608.94648878
  entropy T*S    EENTRO =        -0.02785195
  eigenvalues    EBANDS =      -305.36201317
  atomic energy  EATOM  =     38946.81392559
  Solvation  Ediel_sol  =         0.00000000
  ---------------------------------------------------
  free energy    TOTEN  =       -98.67149877 eV

  energy without entropy =      -98.64364682  energy(sigma->0) =      -98.66221479


--------------------------------------------------------------------------------------------------------




--------------------------------------- Iteration      1(  24)  ---------------------------------------


    POTLOK:  cpu time      0.0583: real time      0.0588
    SETDIJ:  cpu time      0.0119: real time      0.0119
     EDDAV:  cpu time      4.2565: real time      4.2922
       DOS:  cpu time      0.0018: real time      0.0018
    CHARGE:  cpu time      0.3957: real time      0.3976
    MIXING:  cpu time      0.0145: real time      0.0146
    --------------------------------------------
      LOOP:  cpu time      4.7386: real time      4.7768

 eigenvalue-minimisations  :  3440
 total energy-change (2. order) :-0.5029103E+00  (-0.5496092E-02)
 number of electron     308.0000028 magnetization       0.0137854
 augmentation part      196.4886220 magnetization       0.0139239

 Broyden mixing:
  rms(total) = 0.35666E-01    rms(broyden)= 0.35654E-01
  rms(prec ) = 0.46655E-01
[...]
 -7.074  -0.000   0.000  -0.005   0.000  -1.570   0.000  -0.000
 -0.000  -7.006   0.000   0.000  -0.005   0.000  -1.623  -0.000
  0.000   0.000  -6.992   0.000   0.000  -0.000  -0.000  -1.634
 -0.005   0.000   0.000  -7.006  -0.000   0.003   0.000  -0.000
  0.000  -0.005   0.000  -0.000  -7.074  -0.000   0.003  -0.000
 -1.570   0.000  -0.000   0.003  -0.000   8.086  -0.000   0.000
  0.000  -1.623  -0.000   0.000   0.003  -0.000   8.124  -0.000
 -0.000  -0.000  -1.634  -0.000  -0.000   0.000  -0.000   8.133
  0.003   0.000  -0.000  -1.623   0.000  -0.002  -0.000  -0.000
 -0.000   0.003  -0.000   0.000  -1.570   0.000  -0.002   0.000
  0.000   0.000  -0.011   0.000   0.000   0.000   0.000   0.004
  0.000   0.000  -0.021   0.000   0.000   0.000   0.000   0.006
  0.000  -0.006  -0.000  -0.000   0.000   0.000   0.007  -0.000
 -0.000   0.000  -0.006   0.000  -0.000  -0.000  -0.000   0.007
  0.000  -0.000  -0.000  -0.006   0.000  -0.000  -0.000  -0.000
  0.000  -0.007  -0.000   0.000   0.000   0.000   0.009  -0.000
  0.000   0.000  -0.006   0.000   0.000  -0.000  -0.000   0.008
  0.000   0.000  -0.000  -0.007   0.000  -0.000  -0.000  -0.000
 pseudopotential strength for first ion, spin component:           2
 -7.074  -0.000   0.000  -0.005   0.000  -1.570   0.000  -0.000
 -0.000  -7.006   0.000   0.000  -0.005   0.000  -1.623  -0.000
  0.000   0.000  -6.992   0.000   0.000  -0.000  -0.000  -1.634
 -0.005   0.000   0.000  -7.006  -0.000   0.003   0.000  -0.000
  0.000  -0.005   0.000  -0.000  -7.074  -0.000   0.003  -0.000
 -1.570   0.000  -0.000   0.003  -0.000   8.086  -0.000   0.000
  0.000  -1.623  -0.000   0.000   0.003  -0.000   8.124  -0.000
 -0.000  -0.000  -1.634  -0.000  -0.000   0.000  -0.000   8.133
  0.003   0.000  -0.000  -1.623   0.000  -0.002  -0.000  -0.000
 -0.000   0.003  -0.000   0.000  -1.570   0.000  -0.002   0.000
  0.000   0.000  -0.011   0.000   0.000   0.000   0.000   0.004
  0.000   0.000  -0.021   0.000   0.000   0.000   0.000   0.006
  0.000  -0.006  -0.000  -0.000   0.000   0.000   0.007  -0.000
 -0.000   0.000  -0.006   0.000  -0.000  -0.000  -0.000   0.007
  0.000  -0.000  -0.000  -0.006   0.000  -0.000  -0.000  -0.000
  0.000  -0.007  -0.000   0.000   0.000   0.000   0.009  -0.000
  0.000   0.000  -0.006   0.000   0.000  -0.000  -0.000   0.008
  0.000   0.000  -0.000  -0.007   0.000  -0.000  -0.000  -0.000
 total augmentation occupancy for first ion, spin component:           1
  1.902  -0.000  -0.000  -0.006   0.000  -0.015   0.000   0.000   0.005  -0.000  -0.000  -0.000   0.000  -0.000   0.007  -0.000
 -0.000   1.929   0.000   0.000  -0.006   0.000  -0.034  -0.000  -0.000   0.005   0.000  -0.000   0.012  -0.000   0.000  -0.008
 -0.000   0.000   1.929   0.000  -0.000   0.000  -0.000  -0.030  -0.000   0.000   0.016   0.009  -0.000   0.046  -0.000   0.000
 -0.006   0.000   0.000   1.929  -0.000   0.005  -0.000  -0.000  -0.034   0.000   0.000  -0.000   0.000   0.000   0.012  -0.000
  0.000  -0.006  -0.000  -0.000   1.902  -0.000   0.005   0.000   0.000  -0.015  -0.000  -0.000   0.007  -0.000   0.000  -0.001
 -0.015   0.000   0.000   0.005  -0.000   0.013   0.000  -0.000   0.000   0.000  -0.000  -0.000   0.000  -0.000   0.002  -0.000
  0.000  -0.034  -0.000  -0.000   0.005   0.000   0.010  -0.000   0.000   0.000   0.000  -0.000   0.015  -0.000   0.000  -0.001
  0.000  -0.000  -0.030  -0.000   0.000  -0.000  -0.000   0.014  -0.000  -0.000  -0.047   0.002  -0.000   0.023  -0.000   0.000
  0.005  -0.000  -0.000  -0.034   0.000   0.000   0.000   0.000   0.010   0.000  -0.000   0.000   0.000  -0.000   0.015  -0.000
 -0.000   0.005   0.000   0.000  -0.015   0.000   0.000  -0.000   0.000   0.013   0.000  -0.000   0.002  -0.000   0.000  -0.000
 -0.000   0.000   0.016  -0.000  -0.000   0.000   0.000  -0.047  -0.000   0.000   1.685  -0.132  -0.000   0.121   0.000   0.000
  0.000  -0.000   0.009  -0.000  -0.000  -0.000  -0.000   0.002   0.000  -0.000  -0.132   0.016   0.000  -0.022  -0.000  -0.000
  0.000   0.012  -0.000   0.000   0.007   0.000   0.015  -0.000   0.000   0.002   0.000  -0.000   0.197   0.000   0.000  -0.012
  0.000   0.000   0.046  -0.000  -0.000  -0.000   0.000   0.023  -0.000  -0.000   0.121  -0.022  -0.000   0.128   0.000   0.000
  0.007   0.000  -0.000   0.012   0.000   0.002   0.000  -0.000   0.015   0.000   0.000   0.000   0.000   0.000   0.197  -0.000
 -0.000  -0.008   0.000  -0.000  -0.001  -0.000  -0.001   0.000  -0.000  -0.000   0.000   0.000  -0.012   0.000  -0.000   0.001
 -0.000   0.000  -0.012  -0.000   0.000   0.000  -0.000  -0.001   0.000   0.000  -0.018   0.002   0.000  -0.008  -0.000   0.000
 -0.001  -0.000   0.000  -0.008  -0.000  -0.000  -0.000   0.000  -0.001  -0.000  -0.000  -0.000  -0.000   0.000  -0.012   0.000
 total augmentation occupancy for first ion, spin component:           2
  0.000  -0.000   0.000  -0.000   0.000  -0.000  -0.000   0.000  -0.000  -0.000  -0.000   0.000   0.000   0.000   0.000  -0.000
 -0.000   0.000   0.000   0.000  -0.000  -0.000   0.000  -0.000  -0.000   0.000  -0.000   0.000   0.000   0.000   0.000  -0.000
  0.000   0.000   0.000   0.000  -0.000   0.000   0.000   0.000   0.000  -0.000   0.000  -0.000  -0.000   0.000  -0.000   0.000
 -0.000   0.000   0.000   0.000   0.000   0.000  -0.000  -0.000   0.000  -0.000  -0.000   0.000   0.000   0.000   0.000  -0.000
 -0.000  -0.000  -0.000   0.000   0.000  -0.000  -0.000  -0.000  -0.000  -0.000  -0.000   0.000   0.000  -0.000  -0.000  -0.000
 -0.000  -0.000   0.000   0.000  -0.000  -0.000  -0.000  -0.000   0.000   0.000  -0.000   0.000   0.000   0.000   0.000   0.000
  0.000   0.000   0.000   0.000  -0.000   0.000  -0.000  -0.000  -0.000   0.000   0.000  -0.000   0.000   0.000  -0.000  -0.000
  0.000  -0.000   0.000  -0.000  -0.000  -0.000  -0.000   0.000  -0.000  -0.000   0.000  -0.000  -0.000   0.000  -0.000   0.000
 -0.000  -0.000   0.000   0.000   0.000   0.000   0.000  -0.000  -0.000   0.000  -0.000  -0.000  -0.000  -0.000   0.000   0.000
 -0.000   0.000  -0.000   0.000  -0.000  -0.000   0.000  -0.000   0.000  -0.000  -0.000   0.000   0.000  -0.000   0.000  -0.000
 -0.000   0.000   0.000  -0.000  -0.000  -0.000  -0.000   0.000   0.000  -0.000   0.000  -0.000   0.000   0.000   0.000  -0.000
  0.000   0.000  -0.000   0.000   0.000   0.000  -0.000  -0.000  -0.000   0.000  -0.000   0.000   0.000  -0.000  -0.000  -0.000
 -0.000   0.000  -0.000  -0.000   0.000  -0.000   0.000  -0.000  -0.000   0.000   0.000  -0.000  -0.000  -0.000   0.000  -0.000
  0.000  -0.000   0.000   0.000  -0.000   0.000  -0.000   0.000   0.000  -0.000   0.000  -0.000   0.000   0.000  -0.000   0.000
  0.000  -0.000   0.000   0.000  -0.000   0.000   0.000  -0.000   0.000   0.000   0.000   0.000   0.000   0.000  -0.000  -0.000
  0.000  -0.000   0.000   0.000  -0.000  -0.000  -0.000   0.000  -0.000  -0.000  -0.000   0.000  -0.000   0.000   0.000   0.000
 -0.000  -0.000  -0.000  -0.000   0.000   0.000   0.000  -0.000   0.000   0.000   0.000   0.000  -0.000  -0.000  -0.000  -0.000
 -0.000  -0.000   0.000  -0.000  -0.000  -0.000   0.000  -0.000  -0.000   0.000  -0.000   0.000  -0.000  -0.000  -0.000  -0.000


------------------------ aborting loop because EDIFF is reached ----------------------------------------



 DIPCOR: dipole corrections for dipol
 direction  3 min pos   205,
 dipolmoment           0.000000      0.000000     -0.001130 electrons x Angstroem
 Tr[quadrupol]     -1509.443895

 energy correction for charged system         0.000000 eV
 dipol+quadrupol energy correction            0.000000 eV
 added-field ion interaction          0.000000 eV  (added to PSCEN)

 
  *************** adding dipol energy to TOTEN NOW **************** 
    CHARGE:  cpu time      0.3835: real time      0.3855
    FORLOC:  cpu time      0.0070: real time      0.0070
    FORNL :  cpu time      2.9456: real time      2.9576
    STRESS:  cpu time      2.2400: real time      2.2543
    FORCOR:  cpu time      0.0628: real time      0.0632
    FORHAR:  cpu time      0.0122: real time      0.0123
    MIXING:  cpu time      0.0020: real time      0.0020
    OFIELD:  cpu time      0.0001: real time      0.0000

 ---------------------------------------------------------------------------------------------

         DFTD3 V3.0 Rev 1        
 Edisp (eV)  -11.73896

 E6    (eV) :    -4.8281
 E8    (eV) :    -6.9109
 % E8        : 58.87
    FORVDW:  cpu time      0.1588: real time      0.1594

  FORCE on cell =-STRESS in cart. coord.  units (eV):
  Direction    XX          YY          ZZ          XY          YZ          ZX
  --------------------------------------------------------------------------------------
  Alpha Z   911.05319   911.05319   911.05319
  Ewald  195716.72543195716.72543************     0.00000    -0.00000     0.00000
  Hartree206630.66679206630.66679************     0.00000    -0.00000    -0.00000
  E(xc)   -1799.99950 -1799.99899 -1801.95792    -0.00044     0.00001     0.00001
  Local  ************************412805.93060     0.01400    -0.00000    -0.00000
  n-local  -586.41029  -603.38591  -594.22822   -14.70010     0.57800    -0.99013
  augment  2650.66866  2650.68412  2657.02504    -0.01338    -0.00000    -0.00001
  Kinetic  2506.23259  2517.08848  2523.27321     9.40265    -2.63951     4.57192
  Fock        0.00000     0.00000     0.00000     0.00000     0.00000     0.00000
  vdW       -14.24980   -14.24980   -11.64970     0.00000     0.00000    -0.00000
  -------------------------------------------------------------------------------------
  Total     -13.47269   -13.47269    -1.56690     0.00000    -0.00000    -0.00000
  in kB     -34.29892   -34.29892    -3.98904     0.00000    -0.00000    -0.00000
  external pressure =      -24.20 kB  Pullay stress =        0.00 kB


 VOLUME and BASIS-vectors are now :
 -----------------------------------------------------------------------------
  energy-cutoff  :      400.00
  volume of cell :      629.34
      direct lattice vectors                 reciprocal lattice vectors
     5.133595467  0.000000000  0.000000000     0.194795248 -0.112465089  0.000000000
     2.566797733  4.445824087  0.000000000     0.000000000  0.224930177  0.000000000
     0.000000000  0.000000000 27.574689865     0.000000000  0.000000000  0.036265140

  length of vectors
     5.133595467  5.133595467 27.574689865     0.224930177  0.224930177  0.036265140


 FORCES acting on ions
    electron-ion (+dipol)            ewald-force                    non-local-force                 convergence-correction
 -----------------------------------------------------------------------------------------------
   -.422E-05 -.244E-05 0.552E+04   -.127E-06 -.190E-06 -.552E+04   -.173E-17 0.694E-17 -.164E+01   0.121E-07 0.697E-08 -.126E+00
   -.556E-05 -.913E-06 0.552E+04   -.167E-06 0.344E-06 -.552E+04   0.347E-17 0.694E-17 -.164E+01   0.120E-07 0.707E-08 -.126E+00
   -.308E-05 -.244E-05 0.552E+04   0.182E-06 -.349E-06 -.552E+04   -.867E-17 0.104E-16 -.164E+01   0.121E-07 0.697E-08 -.126E+00
   -.441E-05 -.913E-06 0.552E+04   0.142E-06 0.185E-06 -.552E+04   0.694E-17 0.104E-16 -.164E+01   0.121E-07 0.706E-08 -.126E+00
   0.740E-05 0.554E-05 0.374E+04   -.187E-06 -.213E-06 -.374E+04   -.781E-17 -.173E-17 -.173E+01   -.112E-07 -.644E-08 -.322E+00
   0.608E-05 0.705E-05 0.374E+04   -.214E-06 0.402E-06 -.374E+04   0.113E-16 -.173E-17 -.173E+01   -.113E-07 -.662E-08 -.322E+00
   0.853E-05 0.554E-05 0.374E+04   0.165E-06 -.403E-06 -.374E+04   0.434E-17 -.694E-17 -.173E+01   -.113E-07 -.634E-08 -.322E+00
   0.721E-05 0.705E-05 0.374E+04   0.138E-06 0.212E-06 -.374E+04   -.520E-17 -.347E-17 -.173E+01   -.114E-07 -.652E-08 -.322E+00
   -.938E-05 -.507E-05 0.186E+04   -.877E-07 -.169E-06 -.186E+04   0.130E-17 -.434E-18 0.273E+00   -.157E-05 -.908E-06 -.527E+00
   -.107E-04 -.356E-05 0.186E+04   -.156E-06 0.325E-06 -.186E+04   0.000E+00 -.130E-17 0.273E+00   -.157E-05 -.908E-06 -.527E+00
   -.825E-05 -.507E-05 0.186E+04   0.205E-06 -.305E-06 -.186E+04   0.520E-17 -.867E-18 0.273E+00   -.157E-05 -.908E-06 -.527E+00
   -.957E-05 -.356E-05 0.186E+04   0.137E-06 0.190E-06 -.186E+04   0.000E+00 0.867E-18 0.273E+00   -.157E-05 -.908E-06 -.527E+00
   0.120E-05 0.693E-06 0.384E+01   -.110E-06 -.189E-06 -.366E+01   0.122E-18 0.271E-19 0.180E+00   -.261E-05 -.151E-05 -.372E+00
   -.119E-06 0.220E-05 0.384E+01   -.179E-06 0.304E-06 -.366E+01   0.190E-18 -.271E-19 0.180E+00   -.261E-05 -.151E-05 -.372E+00
   0.233E-05 0.693E-06 0.384E+01   0.182E-06 -.324E-06 -.366E+01   0.108E-18 0.136E-19 0.180E+00   -.261E-05 -.151E-05 -.372E+00
   0.101E-05 0.220E-05 0.384E+01   0.113E-06 0.169E-06 -.366E+01   0.678E-19 -.407E-19 0.180E+00   -.261E-05 -.151E-05 -.372E+00
   0.879E-05 0.634E-05 -.186E+04   -.192E-06 -.216E-06 0.186E+04   -.434E-17 0.217E-17 -.121E+00   -.104E-05 -.599E-06 0.150E+00
   0.747E-05 0.784E-05 -.186E+04   -.217E-06 0.409E-06 0.186E+04   -.260E-17 -.434E-18 -.121E+00   -.104E-05 -.598E-06 0.150E+00
   0.992E-05 0.634E-05 -.186E+04   0.165E-06 -.410E-06 0.186E+04   -.173E-17 -.434E-18 -.121E+00   -.104E-05 -.599E-06 0.150E+00
   0.860E-05 0.784E-05 -.186E+04   0.140E-06 0.216E-06 0.186E+04   0.304E-17 0.217E-17 -.121E+00   -.104E-05 -.599E-06 0.150E+00
   -.168E-05 -.617E-06 -.373E+04   -.890E-07 -.169E-06 0.373E+04   0.000E+00 -.173E-17 0.150E+01   0.156E-05 0.903E-06 0.575E+00
   -.300E-05 0.890E-06 -.373E+04   -.155E-06 0.324E-06 0.373E+04   0.173E-17 0.173E-17 0.150E+01   0.156E-05 0.904E-06 0.575E+00
   -.549E-06 -.617E-06 -.373E+04   0.202E-06 -.305E-06 0.373E+04   -.434E-17 0.867E-17 0.150E+01   0.156E-05 0.903E-06 0.575E+00
   -.187E-05 0.890E-06 -.373E+04   0.136E-06 0.188E-06 0.373E+04   -.121E-16 0.867E-17 0.150E+01   0.156E-05 0.904E-06 0.575E+00
   0.533E-05 0.308E-05 -.554E+04   -.955E-07 -.165E-06 0.554E+04   -.226E-16 0.000E+00 0.182E+01   -.575E-06 -.332E-06 0.292E-01
   0.399E-05 0.460E-05 -.554E+04   -.174E-06 0.261E-06 0.554E+04   -.867E-17 0.139E-16 0.182E+01   -.575E-06 -.332E-06 0.292E-01
   0.647E-05 0.308E-05 -.554E+04   0.161E-06 -.274E-06 0.554E+04   -.520E-17 -.347E-17 0.182E+01   -.575E-06 -.332E-06 0.292E-01
   0.514E-05 0.460E-05 -.554E+04   0.820E-07 0.152E-06 0.554E+04   -.278E-16 0.104E-16 0.182E+01   -.575E-06 -.332E-06 0.292E-01
 -----------------------------------------------------------------------------------------------
   0.271E-04 0.513E-04 0.112E+01   -.256E-12 -.123E-12 0.173E-10   -.750E-16 0.607E-16 0.117E+01   -.169E-04 -.977E-05 -.237E+01
 
 
 POSITION                                       TOTAL-FORCE (eV/Angst)
 -----------------------------------------------------------------------------------
      0.00000      0.00000      0.00000        -0.000000      0.000000      0.092064
      1.28340      2.22291      0.00000        -0.000000      0.000000      0.092064
      2.56680      0.00000      0.00000        -0.000000      0.000000      0.092064
      3.85020      2.22291      0.00000        -0.000000      0.000000      0.092064
      1.28340      0.74097      2.09578         0.000000     -0.000000     -0.102816
      2.56680      2.96388      2.09578        -0.000000     -0.000000     -0.102816
      3.85020      0.74097      2.09578        -0.000000      0.000000     -0.102816
      5.13360      2.96388      2.09578        -0.000000      0.000000     -0.102816
      2.56680      1.48194      4.10878         0.000000     -0.000000      0.008051
      3.85020      3.70485      4.10878         0.000000      0.000000      0.008051
      5.13360      1.48194      4.10878        -0.000000     -0.000000      0.008051
      6.41699      3.70485      4.10878         0.000000      0.000000      0.008051
     -0.00000     -0.00000      6.13921        -0.000000      0.000000     -0.012980
      1.28340      2.22291      6.13921        -0.000000     -0.000000     -0.012980
      2.56680     -0.00000      6.13921        -0.000000     -0.000000     -0.012980
      3.85020      2.22291      6.13921        -0.000000     -0.000000     -0.012980
      1.28340      0.74097      8.16924         0.000000     -0.000000     -0.001983
      2.56680      2.96388      8.16924         0.000000     -0.000000     -0.001983
      3.85020      0.74097      8.16924         0.000000     -0.000000     -0.001983
      5.13360      2.96388      8.16924         0.000000     -0.000000     -0.001983
      2.56680      1.48194     10.18405         0.000000     -0.000000      0.011576
      3.85020      3.70485     10.18405        -0.000000     -0.000000      0.011576
      5.13360      1.48194     10.18405        -0.000000      0.000000      0.011576
      6.41699      3.70485     10.18405         0.000000     -0.000000      0.011576
      0.00000     -0.00000     12.25094        -0.000000     -0.000000      0.006088
      1.28340      2.22291     12.25094        -0.000000     -0.000000      0.006088
      2.56680     -0.00000     12.25094         0.000000      0.000000      0.006088
      3.85020      2.22291     12.25094        -0.000000      0.000000      0.006088
 -----------------------------------------------------------------------------------
    total drift:                                0.000010      0.000041     -0.072391


--------------------------------------------------------------------------------------------------------



  FREE ENERGIE OF THE ION-ELECTRON SYSTEM (eV)
  ---------------------------------------------------
  free  energy   TOTEN  =      -111.51386288 eV

  energy  without entropy=     -111.49675486  energy(sigma->0) =     -111.50816021
 
 d Force = 0.1169987E-02[ 0.303E-03, 0.204E-02]  d Energy = 0.9823824E-03 0.188E-03
 d Force = 0.1070988E+02[ 0.106E+02, 0.108E+02]  d Ewald  = 0.1070988E+02 0.108E-05


--------------------------------------------------------------------------------------------------------


    POTLOK:  cpu time      0.0698: real time      0.0701


--------------------------------------------------------------------------------------------------------


 stress matrix after NEB project (eV)
    -13.47269      0.00000     -0.00000
      0.00000    -13.47269     -0.00000
     -0.00000     -0.00000     -1.56690
  FORCES: max atom, RMS     0.012980    0.007637
  FORCE total and by dimension    0.040412    0.012980
  Stress total and by dimension   19.117586   13.472693
 Conjugate gradient step on ions:
 trial-energy change:   -0.000982  1 .order   -0.001170   -0.002037   -0.000303
  (g-gl).g = 0.935E-03      g.g   = 0.888E-03  gl.gl    = 0.467E-02
 g(Force)  = 0.888E-03   g(Stress)= 0.000E+00 ortho     = 0.375E-04
 gamma     =   0.20030
 trial     =   2.27577
 opt step  =   2.67347  (harmonic =   2.67347) maximal distance =0.00444648
 next E    =  -111.514077   (d E  =  -0.00120)


--------------------------------------------------------------------------------------------------------


  
 reached required accuracy - stopping structural energy minimisation
     LOOP+:  cpu time     28.6131: real time     28.8797
    4ORBIT:  cpu time      0.0000: real time      0.0000

 total amount of memory used by VASP MPI-rank0    51466. kBytes
=======================================================================

   base      :      30000. kBytes
   nonl-proj :       2041. kBytes
   fftplans  :       2293. kBytes
   grid      :       5292. kBytes
   one-center:        186. kBytes
   wavefun   :      11654. kBytes
 
  
  
 General timing and accounting informations for this job:
 ========================================================
  
                  Total CPU time used (sec):      922.836
                            User time (sec):      887.926
                          System time (sec):       34.910
                         Elapsed time (sec):      931.547
  
                   Maximum memory used (kb):      286208.
                   Average memory used (kb):          N/A
  
                          Minor page faults:       807933
                          Major page faults:         6612
                 Voluntary context switches:        10940
