<?xml version="1.0" encoding="ISO-8859-1"?>
<modeling>
 <generator>
  <i name="program" type="string">vasp </i>
  <i name="version" type="string">6.3.2  </i>
  <i name="subversion" type="string">27Jun22 (build Aug 17 2022 15:43:34) complex                          parallel </i>
  <i name="platform" type="string">tv2STDVTST </i>
  <i name="date" type="string">2025 01 17 </i>
  <i name="time" type="string">14:08:43 </i>
 </generator>
 <incar>
  <i type="int" name="ISTART">     0</i>
  <i type="string" name="PREC">Normal</i>
  <i type="int" name="ISPIN">     2</i>
  <i type="int" name="ICHARG">     2</i>
  <i type="int" name="IBRION">     2</i>
  <i name="EDIFF">      0.00020000</i>
  <i name="EDIFFG">     -0.03000000</i>
  <i type="int" name="NSW">   800</i>
  <i type="int" name="ISIF">     2</i>
  <i type="int" name="ISYM">     1</i>
  <i name="ENCUT">    400.00000000</i>
  <i name="POTIM">      0.50000000</i>
  <i type="logical" name="LREAL"> F  </i>
  <i type="int" name="ISMEAR">     1</i>
  <i name="SIGMA">      0.20000000</i>
  <i type="logical" name="LWAVE"> F  </i>
  <i type="logical" name="LCHARG"> F  </i>
  <i type="string" name="GGA">PE</i>
  <i type="int" name="IDIPOL">     3</i>
  <i type="int" name="IVDW">    11</i>
 </incar>
 <primitive_cell>
  <structure name="primitive_cell" >
   <crystal>
    <varray name="basis" >
     <v>      -1.28339887      -2.22291204       0.00000000 </v>
     <v>       2.56679773       0.00000000       0.00000000 </v>
     <v>       0.00000000       0.00000000      27.57468987 </v>
    </varray>
    <i name="volume">    157.33471666 </i>
    <varray name="rec_basis" >
     <v>       0.00000000      -0.44986035       0.00000000 </v>
     <v>       0.38959050      -0.22493018       0.00000000 </v>
     <v>       0.00000000       0.00000000       0.03626514 </v>
    </varray>
   </crystal>
   <varray name="positions" >
    <v>       0.00000000       0.00000000       0.00000000 </v>
    <v>       0.66666667       0.33333333       0.07600381 </v>
    <v>       0.33333333       0.66666667       0.15200763 </v>
    <v>       0.00000000       0.00000000       0.22801144 </v>
    <v>       0.66666667       0.33333333       0.30401525 </v>
    <v>       0.33333333       0.66666667       0.38001907 </v>
    <v>       0.00000000       0.00000000       0.45602288 </v>
   </varray>
  </structure>
  <varray name="primitive_index" >
   <v type="int" >        1 </v>
   <v type="int" >        5 </v>
   <v type="int" >       12 </v>
   <v type="int" >       13 </v>
   <v type="int" >       17 </v>
   <v type="int" >       24 </v>
   <v type="int" >       25 </v>
  </varray>
 </primitive_cell>
 <kpoints>
  <generation param="Monkhorst-Pack">
   <v type="int" name="divisions">       3        3        1 </v>
   <v name="usershift">      0.00000000       0.00000000       0.00000000 </v>
   <v name="genvec1">      0.33333333       0.00000000       0.00000000 </v>
   <v name="genvec2">      0.00000000       0.33333333       0.00000000 </v>
   <v name="genvec3">      0.00000000       0.00000000       1.00000000 </v>
   <v name="shift">      0.00000000       0.00000000       0.00000000 </v>
  </generation>
  <varray name="kpointlist" >
   <v>       0.00000000       0.00000000       0.00000000 </v>
   <v>       0.33333333      -0.00000000       0.00000000 </v>
   <v>      -0.33333333       0.33333333       0.00000000 </v>
  </varray>
  <varray name="weights" >
   <v>       0.11111111 </v>
   <v>       0.66666667 </v>
   <v>       0.22222222 </v>
  </varray>
 </kpoints>
 <parameters>
  <separator name="general" >
   <i type="string" name="SYSTEM">unknown system</i>
   <i type="logical" name="LCOMPAT"> F  </i>
  </separator>
  <separator name="electronic" >
   <i type="string" name="PREC">normal</i>
   <i name="ENMAX">    400.00000000</i>
   <i name="ENAUG">    586.98000000</i>
   <i name="EDIFF">      0.00020000</i>
   <i type="int" name="IALGO">    38</i>
   <i type="int" name="IWAVPR">    11</i>
   <i type="int" name="NBANDS">   200</i>
   <i type="int" name="NBANDSLOW">    -1</i>
   <i type="int" name="NBANDSHIGH">    -1</i>
   <i name="NELECT">    308.00000000</i>
   <i type="int" name="TURBO">     0</i>
   <i type="int" name="IRESTART">     0</i>
   <i type="int" name="NREBOOT">     0</i>
   <i type="int" name="NMIN">     0</i>
   <i name="EREF">      0.00000000</i>
   <separator name="electronic smearing" >
    <i type="int" name="ISMEAR">     1</i>
    <i name="SIGMA">      0.20000000</i>
    <i name="KSPACING">      0.50000000</i>
    <i type="logical" name="KGAMMA"> T  </i>
    <i type="logical" name="KBLOWUP"> T  </i>
   </separator>
   <separator name="electronic projectors" >
    <i type="logical" name="LREAL"> F  </i>
    <v name="ROPT">      0.00000000</v>
    <i type="int" name="LMAXPAW">  -100</i>
    <i type="int" name="LMAXMIX">     2</i>
    <i type="logical" name="NLSPLINE"> F  </i>
   </separator>
   <separator name="electronic startup" >
    <i type="int" name="ISTART">     0</i>
    <i type="int" name="ICHARG">     2</i>
    <i type="int" name="INIWAV">     1</i>
   </separator>
   <separator name="electronic spin" >
    <i type="int" name="ISPIN">     2</i>
    <i type="logical" name="LNONCOLLINEAR"> F  </i>
    <v name="MAGMOM">      1.00000000      1.00000000      1.00000000      1.00000000      1.00000000      1.00000000      1.00000000      1.00000000      1.00000000      1.00000000      1.00000000      1.00000000      1.00000000      1.00000000      1.00000000      1.00000000      1.00000000      1.00000000      1.00000000      1.00000000
      1.00000000      1.00000000      1.00000000      1.00000000      1.00000000      1.00000000      1.00000000      1.00000000</v>
    <i name="NUPDOWN">     -1.00000000</i>
    <i type="logical" name="LSORBIT"> F  </i>
    <v name="SAXIS">      0.00000000      0.00000000      1.00000000</v>
    <i type="logical" name="LSPIRAL"> F  </i>
    <v name="QSPIRAL">      0.00000000      0.00000000      0.00000000</v>
    <i type="logical" name="LZEROZ"> F  </i>
   </separator>
   <separator name="electronic exchange-correlation" >
    <i type="logical" name="LASPH"> F  </i>
    <i type="logical" name="LMETAGGA"> F  </i>
   </separator>
   <separator name="electronic convergence" >
    <i type="int" name="NELM">    60</i>
    <i type="int" name="NELMDL">    -5</i>
    <i type="int" name="NELMIN">     2</i>
    <i name="ENINI">    400.00000000</i>
    <separator name="electronic convergence detail" >
     <i type="logical" name="LDIAG"> T  </i>
     <i type="logical" name="LSUBROT"> F  </i>
     <i name="WEIMIN">      0.00100000</i>
     <i name="EBREAK">      0.00000025</i>
     <i name="DEPER">      0.30000000</i>
     <i type="int" name="NRMM">     4</i>
     <i name="TIME">      0.40000000</i>
    </separator>
   </separator>
   <separator name="electronic mixer" >
    <i name="AMIX">      0.40000000</i>
    <i name="BMIX">      1.00000000</i>
    <i name="AMIN">      0.10000000</i>
    <i name="AMIX_MAG">      1.60000000</i>
    <i name="BMIX_MAG">      1.00000000</i>
    <separator name="electronic mixer details" >
     <i type="int" name="IMIX">     4</i>
     <i type="logical" name="MIXFIRST"> F  </i>
     <i type="int" name="MAXMIX">   -45</i>
     <i name="WC">    100.00000000</i>
     <i type="int" name="INIMIX">     1</i>
     <i type="int" name="MIXPRE">     1</i>
     <i type="int" name="MREMOVE">     5</i>
    </separator>
   </separator>
   <separator name="electronic dipolcorrection" >
    <i type="logical" name="LDIPOL"> F  </i>
    <i type="logical" name="LMONO"> F  </i>
    <i type="int" name="IDIPOL">     3</i>
    <i name="EPSILON">      1.00000000</i>
    <v name="DIPOL">   -100.00000000   -100.00000000   -100.00000000</v>
    <i name="EFIELD">      0.00000000</i>
   </separator>
  </separator>
  <separator name="grids" >
   <i type="int" name="NGX">    28</i>
   <i type="int" name="NGY">    28</i>
   <i type="int" name="NGZ">   140</i>
   <i type="int" name="NGXF">    56</i>
   <i type="int" name="NGYF">    56</i>
   <i type="int" name="NGZF">   280</i>
   <i type="logical" name="ADDGRID"> F  </i>
  </separator>
  <separator name="ionic" >
   <i type="int" name="NSW">   800</i>
   <i type="int" name="IBRION">     2</i>
   <i type="int" name="MDALGO">     0</i>
   <i type="int" name="ISIF">     2</i>
   <i name="PSTRESS">      0.00000000</i>
   <i name="EDIFFG">     -0.03000000</i>
   <i type="int" name="NFREE">     1</i>
   <i name="POTIM">      0.50000000</i>
   <i name="SMASS">     -3.00000000</i>
   <i name="SCALEE">      1.00000000</i>
  </separator>
  <separator name="ionic md" >
   <i name="TEBEG">      0.00010000</i>
   <i name="TEEND">      0.00010000</i>
   <i type="int" name="NBLOCK">     1</i>
   <i type="int" name="KBLOCK">   800</i>
   <i type="int" name="NPACO">   256</i>
   <i name="APACO">     10.00000000</i>
  </separator>
  <separator name="symmetry" >
   <i type="int" name="ISYM">     1</i>
   <i name="SYMPREC">      0.00001000</i>
  </separator>
  <separator name="dos" >
   <i type="int" name="LORBIT">     0</i>
   <v name="RWIGS">     -1.00000000</v>
   <i type="int" name="NEDOS">   301</i>
   <i name="EMIN">     10.00000000</i>
   <i name="EMAX">    -10.00000000</i>
   <i name="EFERMI">      0.00000000</i>
  </separator>
  <separator name="writing" >
   <i type="int" name="NWRITE">     2</i>
   <i type="logical" name="LWAVE"> F  </i>
   <i type="logical" name="LDOWNSAMPLE"> F  </i>
   <i type="logical" name="LCHARG"> F  </i>
   <i type="logical" name="LPARD"> F  </i>
   <i type="logical" name="LVTOT"> F  </i>
   <i type="logical" name="LVHAR"> F  </i>
   <i type="logical" name="LELF"> F  </i>
   <i type="logical" name="LOPTICS"> F  </i>
   <v name="STM">      0.00000000      0.00000000      0.00000000      0.00000000      0.00000000      0.00000000      0.00000000</v>
  </separator>
  <separator name="performance" >
   <i type="int" name="NPAR">     4</i>
   <i type="int" name="NSIM">     4</i>
   <i type="int" name="NBLK">    -1</i>
   <i type="logical" name="LPLANE"> T  </i>
   <i type="logical" name="LSCALAPACK"> T  </i>
   <i type="logical" name="LSCAAWARE"> F  </i>
   <i type="logical" name="LSCALU"> F  </i>
   <i type="logical" name="LASYNC"> F  </i>
   <i type="logical" name="LORBITALREAL"> F  </i>
  </separator>
  <separator name="miscellaneous" >
   <i type="int" name="IDIOT">     3</i>
   <i type="int" name="PHON_NSTRUCT">    -1</i>
   <i type="logical" name="LMUSIC"> F  </i>
   <v name="POMASS">     63.54600000</v>
   <v name="DARWINR">      0.00000000</v>
   <v name="DARWINV">      1.00000000</v>
   <i type="logical" name="LCORR"> T  </i>
  </separator>
  <i type="logical" name="GGA_COMPAT"> T  </i>
  <i type="logical" name="LBERRY"> F  </i>
  <i type="int" name="ICORELEVEL">     0</i>
  <i type="logical" name="LDAU"> F  </i>
  <i type="int" name="I_CONSTRAINED_M">     0</i>
  <separator name="electronic exchange-correlation" >
   <i type="string" name="GGA">PE</i>
   <i type="int" name="VOSKOWN">     0</i>
   <i type="logical" name="LHFCALC"> F  </i>
   <i type="string" name="PRECFOCK"></i>
   <i type="logical" name="LSYMGRAD"> F  </i>
   <i type="logical" name="LHFONE"> F  </i>
   <i type="logical" name="LRHFCALC"> F  </i>
   <i type="logical" name="LTHOMAS"> F  </i>
   <i type="logical" name="LMODELHF"> F  </i>
   <i type="logical" name="LFOCKACE"> F  </i>
   <i name="ENCUT4O">     -1.00000000</i>
   <i type="int" name="EXXOEP">     0</i>
   <i type="int" name="FOURORBIT">     0</i>
   <i name="AEXX">      0.00000000</i>
   <i name="HFALPHA">      0.00000000</i>
   <i name="MCALPHA">      0.00000000</i>
   <i name="ALDAX">      1.00000000</i>
   <i name="AGGAX">      1.00000000</i>
   <i name="ALDAC">      1.00000000</i>
   <i name="AGGAC">      1.00000000</i>
   <i type="int" name="NKREDX">     1</i>
   <i type="int" name="NKREDY">     1</i>
   <i type="int" name="NKREDZ">     1</i>
   <i type="logical" name="SHIFTRED"> F  </i>
   <i type="logical" name="ODDONLY"> F  </i>
   <i type="logical" name="EVENONLY"> F  </i>
   <i type="int" name="LMAXFOCK">     0</i>
   <i type="int" name="NMAXFOCKAE">     0</i>
   <i type="logical" name="LFOCKAEDFT"> F  </i>
   <i name="HFSCREEN">      0.00000000</i>
   <i name="HFSCREENC">      0.00000000</i>
   <i type="int" name="NBANDSGWLOW">     0</i>
  </separator>
  <separator name="vdW DFT" >
   <i type="logical" name="LUSE_VDW"> F  </i>
   <i name="Zab_VDW">     -0.84910000</i>
   <i name="PARAM1">      0.12340000</i>
   <i name="PARAM2">      1.00000000</i>
   <i name="PARAM3">      0.00000000</i>
  </separator>
  <separator name="model GW" >
   <i type="int" name="MODEL_GW">     0</i>
   <i name="MODEL_EPS0">     13.48583286</i>
   <i name="MODEL_ALPHA">      1.00000000</i>
  </separator>
  <separator name="linear response parameters" >
   <i type="logical" name="LEPSILON"> F  </i>
   <i type="logical" name="LRPA"> F  </i>
   <i type="logical" name="LNABLA"> F  </i>
   <i type="logical" name="LVEL"> F  </i>
   <i name="CSHIFT">      0.10000000</i>
   <i name="OMEGAMAX">     -1.00000000</i>
   <i name="DEG_THRESHOLD">      0.00200000</i>
   <i name="RTIME">     -0.10000000</i>
   <i name="WPLASMAI">      0.00000000</i>
   <v name="DFIELD">      0.00000000      0.00000000      0.00000000</v>
   <v name="WPLASMA">      0.00000000      0.00000000      0.00000000      0.00000000      0.00000000      0.00000000      0.00000000      0.00000000      0.00000000</v>
  </separator>
  <separator name="orbital magnetization" >
   <i type="logical" name="NUCIND"> F  </i>
   <v name="MAGPOS">      0.00000000      0.00000000      0.00000000</v>
   <i type="logical" name="LNICSALL"> T  </i>
   <i type="logical" name="ORBITALMAG"> F  </i>
   <i type="logical" name="LMAGBLOCH"> F  </i>
   <i type="logical" name="LCHIMAG"> F  </i>
   <i type="logical" name="LGAUGE"> T  </i>
   <i type="int" name="MAGATOM">     0</i>
   <v name="MAGDIPOL">      0.00000000      0.00000000      0.00000000</v>
   <v name="AVECCONST">      0.00000000      0.00000000      0.00000000</v>
  </separator>
  <separator name="response functions" >
   <i type="logical" name="LFINITE_TEMPERATURE"> F  </i>
   <i type="logical" name="LADDER"> F  </i>
   <i type="logical" name="LRPAFORCE"> F  </i>
   <i type="logical" name="LFXC"> F  </i>
   <i type="logical" name="LHARTREE"> T  </i>
   <i type="int" name="IBSE">     0</i>
   <v type="int" name="KPOINT">    -1     0     0     0</v>
   <i type="logical" name="LTCTC"> F  </i>
   <i type="logical" name="LTCTE"> F  </i>
   <i type="logical" name="LTETE"> F  </i>
   <i type="logical" name="LTRIPLET"> F  </i>
   <i type="logical" name="LFXCEPS"> F  </i>
   <i type="logical" name="LFXHEG"> F  </i>
   <i type="int" name="NATURALO">     2</i>
   <i type="logical" name="LHOLEGF"> F  </i>
   <i type="logical" name="L2ORDER"> F  </i>
   <i type="logical" name="LDMP1"> F  </i>
   <i type="logical" name="LMP2LT"> F  </i>
   <i type="logical" name="LSMP2LT"> F  </i>
   <i type="logical" name="LGWLF"> F  </i>
   <i name="ENCUTGW">     -2.00000000</i>
   <i name="ENCUTGWSOFT">     -2.00000000</i>
   <i name="ENCUTLF">     -1.00000000</i>
   <i type="logical" name="LESF_SPLINES"> F  </i>
   <i type="int" name="LMAXMP2">    -1</i>
   <i name="SCISSOR">      0.00000000</i>
   <i type="int" name="NOMEGA">     0</i>
   <i type="int" name="NOMEGAR">     0</i>
   <i type="int" name="NBANDSGW">    -1</i>
   <i type="int" name="NBANDSO">    -1</i>
   <i type="int" name="NBANDSV">    -1</i>
   <i type="int" name="NELMGW">     1</i>
   <i type="int" name="NELMHF">     1</i>
   <i type="int" name="DIM">     3</i>
   <i type="int" name="IESPILON">     4</i>
   <i type="int" name="ANTIRES">     0</i>
   <i name="OMEGAMAX">    -30.00000000</i>
   <i name="OMEGAMIN">    -30.00000000</i>
   <i name="OMEGATL">   -200.00000000</i>
   <i type="int" name="OMEGAGRID">     0</i>
   <i name="CSHIFT">     -0.10000000</i>
   <i type="logical" name="LSELFENERGY"> F  </i>
   <i type="logical" name="LSPECTRAL"> F  </i>
   <i type="logical" name="LSPECTRALGW"> F  </i>
   <i type="logical" name="LSINGLES"> F  </i>
   <i type="logical" name="LFERMIGW"> F  </i>
   <i type="logical" name="ODDONLYGW"> F  </i>
   <i type="logical" name="EVENONLYGW"> F  </i>
   <i type="int" name="NKREDLFX">     1</i>
   <i type="int" name="NKREDLFY">     1</i>
   <i type="int" name="NKREDLFZ">     1</i>
   <i type="int" name="MAXMEM">  2800</i>
   <i type="int" name="TELESCOPE">     0</i>
   <i type="int" name="NTAUPAR">    -1</i>
   <i type="int" name="NOMEGAPAR">    -1</i>
   <i name="DAMP_NEWTON">      0.80000001</i>
   <i name="LAMBDA">      1.00000000</i>
  </separator>
  <separator name="External order field" >
   <i name="OFIELD_KAPPA">      0.00000000</i>
   <v name="OFIELD_K">      0.00000000      0.00000000      0.00000000</v>
   <i name="OFIELD_Q6_NEAR">      0.00000000</i>
   <i name="OFIELD_Q6_FAR">      0.00000000</i>
   <i name="OFIELD_A">      0.00000000</i>
  </separator>
  <separator name="optional k-points parameters" >
   <i type="int" name="KPOINTS_OPT_MODE">     1</i>
   <i type="logical" name="LKPOINTS_OPT"> F  </i>
  </separator>
 </parameters>
 <atominfo>
  <atoms>      28 </atoms>
  <types>       1 </types>
  <array name="atoms" >
   <dimension dim="1">ion</dimension>
   <field type="string">element</field>
   <field type="int">atomtype</field>
   <set>
    <rc><c>Cu</c><c>   1</c></rc>
    <rc><c>Cu</c><c>   1</c></rc>
    <rc><c>Cu</c><c>   1</c></rc>
    <rc><c>Cu</c><c>   1</c></rc>
    <rc><c>Cu</c><c>   1</c></rc>
    <rc><c>Cu</c><c>   1</c></rc>
    <rc><c>Cu</c><c>   1</c></rc>
    <rc><c>Cu</c><c>   1</c></rc>
    <rc><c>Cu</c><c>   1</c></rc>
    <rc><c>Cu</c><c>   1</c></rc>
    <rc><c>Cu</c><c>   1</c></rc>
    <rc><c>Cu</c><c>   1</c></rc>
    <rc><c>Cu</c><c>   1</c></rc>
    <rc><c>Cu</c><c>   1</c></rc>
    <rc><c>Cu</c><c>   1</c></rc>
    <rc><c>Cu</c><c>   1</c></rc>
    <rc><c>Cu</c><c>   1</c></rc>
    <rc><c>Cu</c><c>   1</c></rc>
    <rc><c>Cu</c><c>   1</c></rc>
    <rc><c>Cu</c><c>   1</c></rc>
    <rc><c>Cu</c><c>   1</c></rc>
    <rc><c>Cu</c><c>   1</c></rc>
    <rc><c>Cu</c><c>   1</c></rc>
    <rc><c>Cu</c><c>   1</c></rc>
    <rc><c>Cu</c><c>   1</c></rc>
    <rc><c>Cu</c><c>   1</c></rc>
    <rc><c>Cu</c><c>   1</c></rc>
    <rc><c>Cu</c><c>   1</c></rc>
   </set>
  </array>
  <array name="atomtypes" >
   <dimension dim="1">type</dimension>
   <field type="int">atomspertype</field>
   <field type="string">element</field>
   <field>mass</field>
   <field>valence</field>
   <field type="string">pseudopotential</field>
   <set>
    <rc><c>  28</c><c>Cu</c><c>     63.54600000</c><c>     11.00000000</c><c>  PAW_PBE Cu 22Jun2005                  </c></rc>
   </set>
  </array>
 </atominfo>
 <structure name="initialpos" >
  <crystal>
   <varray name="basis" >
    <v>       5.13359547       0.00000000       0.00000000 </v>
    <v>       2.56679773       4.44582409       0.00000000 </v>
    <v>       0.00000000       0.00000000      27.57468987 </v>
   </varray>
   <i name="volume">    629.33886683 </i>
   <varray name="rec_basis" >
    <v>       0.19479525      -0.11246509       0.00000000 </v>
    <v>       0.00000000       0.22493018       0.00000000 </v>
    <v>       0.00000000       0.00000000       0.03626514 </v>
   </varray>
  </crystal>
  <varray name="positions" >
   <v>       0.00000000       0.00000000       0.00000000 </v>
   <v>       0.00000000       0.50000000       0.00000000 </v>
   <v>       0.50000000       0.00000000       0.00000000 </v>
   <v>       0.50000000       0.50000000       0.00000000 </v>
   <v>       0.16666667       0.16666667       0.07600381 </v>
   <v>       0.16666667       0.66666667       0.07600381 </v>
   <v>       0.66666667       0.16666667       0.07600381 </v>
   <v>       0.66666667       0.66666667       0.07600381 </v>
   <v>       0.33333333       0.33333333       0.15200763 </v>
   <v>       0.33333333       0.83333333       0.15200763 </v>
   <v>       0.83333333       0.33333333       0.15200763 </v>
   <v>       0.83333333       0.83333333       0.15200763 </v>
   <v>       0.00000000       0.00000000       0.22801144 </v>
   <v>       0.00000000       0.50000000       0.22801144 </v>
   <v>       0.50000000       0.00000000       0.22801144 </v>
   <v>       0.50000000       0.50000000       0.22801144 </v>
   <v>       0.16666667       0.16666667       0.30401525 </v>
   <v>       0.16666667       0.66666667       0.30401525 </v>
   <v>       0.66666667       0.16666667       0.30401525 </v>
   <v>       0.66666667       0.66666667       0.30401525 </v>
   <v>       0.33333333       0.33333333       0.38001907 </v>
   <v>       0.33333333       0.83333333       0.38001907 </v>
   <v>       0.83333333       0.33333333       0.38001907 </v>
   <v>       0.83333333       0.83333333       0.38001907 </v>
   <v>       0.00000000       0.00000000       0.45602288 </v>
   <v>       0.00000000       0.50000000       0.45602288 </v>
   <v>       0.50000000       0.00000000       0.45602288 </v>
   <v>       0.50000000       0.50000000       0.45602288 </v>
  </varray>
  <varray name="selective"  type="logical" >
   <v type="logical" >  F  F  F </v>
   <v type="logical" >  F  F  F </v>
   <v type="logical" >  F  F  F </v>
   <v type="logical" >  F  F  F </v>
   <v type="logical" >  F  F  F </v>
   <v type="logical" >  F  F  F </v>
   <v type="logical" >  F  F  F </v>
   <v type="logical" >  F  F  F </v>
   <v type="logical" >  T  T  T </v>
   <v type="logical" >  T  T  T </v>
   <v type="logical" >  T  T  T </v>
   <v type="logical" >  T  T  T </v>
   <v type="logical" >  T  T  T </v>
   <v type="logical" >  T  T  T </v>
   <v type="logical" >  T  T  T </v>
   <v type="logical" >  T  T  T </v>
   <v type="logical" >  T  T  T </v>
   <v type="logical" >  T  T  T </v>
   <v type="logical" >  T  T  T </v>
   <v type="logical" >  T  T  T </v>
   <v type="logical" >  T  T  T </v>
   <v type="logical" >  T  T  T </v>
   <v type="logical" >  T  T  T </v>
   <v type="logical" >  T  T  T </v>
   <v type="logical" >  T  T  T </v>
   <v type="logical" >  T  T  T </v>
   <v type="logical" >  T  T  T </v>
   <v type="logical" >  T  T  T </v>
  </varray>
  <nose>
   <v>      -3.00000000       0.00000000       0.00010000       0.00010000 </v>
  </nose>
 </structure>
 <calculation>
  <scstep>
   <time name="dav">    3.36    3.39</time>
   <time name="total">    3.44    3.47</time>
   <energy>
    <i name="alphaZ">    911.05318809 </i>
    <i name="ewald"> 162852.28015667 </i>
    <i name="hartreedc">-201168.72018587 </i>
    <i name="XCdc">   1280.32519254 </i>
    <i name="pawpsdc">  34386.72988937 </i>
    <i name="pawaedc"> -37349.78608270 </i>
    <i name="eentropy">      0.02867578 </i>
    <i name="bandstr">   3083.69536889 </i>
    <i name="atom">  38946.81392559 </i>
    <i name="e_fr_energy">   2942.42012836 </i>
    <i name="e_wo_entrp">   2942.39145258 </i>
    <i name="e_0_energy">   2942.41056976 </i>
   </energy>
  </scstep>
  <scstep>
   <time name="dav">    3.29    3.32</time>
   <time name="total">    3.29    3.32</time>
   <energy>
    <i name="e_fr_energy">    383.47481588 </i>
    <i name="e_wo_entrp">    383.47081482 </i>
    <i name="e_0_energy">    383.47348219 </i>
   </energy>
  </scstep>
  <scstep>
   <time name="dav">    3.28    3.30</time>
   <time name="total">    3.28    3.31</time>
   <energy>
    <i name="e_fr_energy">    -84.70767274 </i>
    <i name="e_wo_entrp">    -84.72155883 </i>
    <i name="e_0_energy">    -84.71230143 </i>
   </energy>
  </scstep>
  <scstep>
   <time name="dav">    3.50    3.54</time>
   <time name="total">    3.51    3.54</time>
   <energy>
    <i name="e_fr_energy">   -118.95935889 </i>
    <i name="e_wo_entrp">   -118.96705750 </i>
    <i name="e_0_energy">   -118.96192509 </i>
   </energy>
  </scstep>
  <scstep>
   <time name="dav">    3.53    3.56</time>
   <time name="total">    3.94    3.97</time>
   <energy>
    <i name="e_fr_energy">   -119.74673235 </i>
    <i name="e_wo_entrp">   -119.75511093 </i>
    <i name="e_0_energy">   -119.74952521 </i>
   </energy>
  </scstep>
  <scstep>
   <time name="dav">    3.49    3.52</time>
   <time name="total">    3.97    4.00</time>
   <energy>
    <i name="e_fr_energy">   -100.24231064 </i>
    <i name="e_wo_entrp">   -100.25692639 </i>
    <i name="e_0_energy">   -100.24718256 </i>
   </energy>
  </scstep>
  <scstep>
   <time name="dav">    3.50    3.53</time>
   <time name="total">    3.98    4.01</time>
   <energy>
    <i name="e_fr_energy">    -85.78849863 </i>
    <i name="e_wo_entrp">    -85.69323597 </i>
    <i name="e_0_energy">    -85.75674441 </i>
   </energy>
  </scstep>
  <scstep>
   <time name="dav">    3.68    3.71</time>
   <time name="total">    4.14    4.17</time>
   <energy>
    <i name="e_fr_energy">    -87.34001046 </i>
    <i name="e_wo_entrp">    -87.32733715 </i>
    <i name="e_0_energy">    -87.33578603 </i>
   </energy>
  </scstep>
  <scstep>
   <time name="dav">    4.21    4.25</time>
   <time name="total">    4.68    4.72</time>
   <energy>
    <i name="e_fr_energy">    -83.04957654 </i>
    <i name="e_wo_entrp">    -82.99796034 </i>
    <i name="e_0_energy">    -83.03237114 </i>
   </energy>
  </scstep>
  <scstep>
   <time name="dav">    4.38    4.41</time>
   <time name="total">    4.83    4.87</time>
   <energy>
    <i name="e_fr_energy">    -84.77201128 </i>
    <i name="e_wo_entrp">    -84.66884370 </i>
    <i name="e_0_energy">    -84.73762209 </i>
   </energy>
  </scstep>
  <scstep>
   <time name="dav">    3.96    4.00</time>
   <time name="total">    4.43    4.47</time>
   <energy>
    <i name="e_fr_energy">    -88.07585372 </i>
    <i name="e_wo_entrp">    -88.03385301 </i>
    <i name="e_0_energy">    -88.06185348 </i>
   </energy>
  </scstep>
  <scstep>
   <time name="dav">    4.14    4.17</time>
   <time name="total">    4.59    4.63</time>
   <energy>
    <i name="e_fr_energy">    -89.95544476 </i>
    <i name="e_wo_entrp">    -89.97766547 </i>
    <i name="e_0_energy">    -89.96285166 </i>
   </energy>
  </scstep>
  <scstep>
   <time name="dav">    4.69    4.73</time>
   <time name="total">    5.17    5.21</time>
   <energy>
    <i name="e_fr_energy">    -87.42807618 </i>
    <i name="e_wo_entrp">    -87.38433689 </i>
    <i name="e_0_energy">    -87.41349642 </i>
   </energy>
  </scstep>
  <scstep>
   <time name="dav">    4.01    4.05</time>
   <time name="total">    4.50    4.54</time>
   <energy>
    <i name="e_fr_energy">    -88.90976041 </i>
    <i name="e_wo_entrp">    -88.91783148 </i>
    <i name="e_0_energy">    -88.91245077 </i>
   </energy>
  </scstep>
  <scstep>
   <time name="dav">    3.76    3.79</time>
   <time name="total">    4.23    4.27</time>
   <energy>
    <i name="e_fr_energy">    -91.30118799 </i>
    <i name="e_wo_entrp">    -91.31542792 </i>
    <i name="e_0_energy">    -91.30593463 </i>
   </energy>
  </scstep>
  <scstep>
   <time name="dav">    3.96    4.00</time>
   <time name="total">    4.44    4.48</time>
   <energy>
    <i name="e_fr_energy">    -92.93466641 </i>
    <i name="e_wo_entrp">    -92.94258374 </i>
    <i name="e_0_energy">    -92.93730552 </i>
   </energy>
  </scstep>
  <scstep>
   <time name="dav">    3.98    4.01</time>
   <time name="total">    4.44    4.48</time>
   <energy>
    <i name="e_fr_energy">    -94.55479960 </i>
    <i name="e_wo_entrp">    -94.55694338 </i>
    <i name="e_0_energy">    -94.55551420 </i>
   </energy>
  </scstep>
  <scstep>
   <time name="dav">    3.85    3.88</time>
   <time name="total">    4.33    4.36</time>
   <energy>
    <i name="e_fr_energy">    -95.66894569 </i>
    <i name="e_wo_entrp">    -95.66459126 </i>
    <i name="e_0_energy">    -95.66749421 </i>
   </energy>
  </scstep>
  <scstep>
   <time name="dav">    3.98    4.02</time>
   <time name="total">    4.45    4.49</time>
   <energy>
    <i name="e_fr_energy">    -96.37546021 </i>
    <i name="e_wo_entrp">    -96.35924003 </i>
    <i name="e_0_energy">    -96.37005348 </i>
   </energy>
  </scstep>
  <scstep>
   <time name="dav">    3.46    3.49</time>
   <time name="total">    3.95    3.98</time>
   <energy>
    <i name="e_fr_energy">    -97.04910454 </i>
    <i name="e_wo_entrp">    -97.02576330 </i>
    <i name="e_0_energy">    -97.04132413 </i>
   </energy>
  </scstep>
  <scstep>
   <time name="dav">    3.73    3.76</time>
   <time name="total">    4.21    4.24</time>
   <energy>
    <i name="e_fr_energy">    -97.70092305 </i>
    <i name="e_wo_entrp">    -97.67689582 </i>
    <i name="e_0_energy">    -97.69291398 </i>
   </energy>
  </scstep>
  <scstep>
   <time name="dav">    4.03    4.06</time>
   <time name="total">    4.51    4.55</time>
   <energy>
    <i name="e_fr_energy">    -98.32593801 </i>
    <i name="e_wo_entrp">    -98.30135886 </i>
    <i name="e_0_energy">    -98.31774496 </i>
   </energy>
  </scstep>
  <scstep>
   <time name="dav">    4.24    4.28</time>
   <time name="total">    4.72    4.76</time>
   <energy>
    <i name="e_fr_energy">    -98.67149877 </i>
    <i name="e_wo_entrp">    -98.64364682 </i>
    <i name="e_0_energy">    -98.66221479 </i>
   </energy>
  </scstep>
  <scstep>
   <time name="dav">    4.26    4.29</time>
   <time name="total">    4.74    4.78</time>
   <energy>
    <i name="e_fr_energy">    -99.17440903 </i>
    <i name="e_wo_entrp">    -99.15002542 </i>
    <i name="e_0_energy">    -99.16628116 </i>
   </energy>
  </scstep>
  <scstep>
   <time name="dav">    3.81    3.84</time>
   <time name="total">    4.29    4.32</time>
   <energy>
    <i name="e_fr_energy">    -99.67943154 </i>
    <i name="e_wo_entrp">    -99.65409947 </i>
    <i name="e_0_energy">    -99.67098751 </i>
   </energy>
  </scstep>
  <scstep>
   <time name="dav">    3.64    3.68</time>
   <time name="total">    4.12    4.15</time>
   <energy>
    <i name="e_fr_energy">    -99.86038703 </i>
    <i name="e_wo_entrp">    -99.83558319 </i>
    <i name="e_0_energy">    -99.85211908 </i>
   </energy>
  </scstep>
  <scstep>
   <time name="dav">    3.54    3.57</time>
   <time name="total">    4.02    4.06</time>
   <energy>
    <i name="e_fr_energy">    -99.89263856 </i>
    <i name="e_wo_entrp">    -99.86779674 </i>
    <i name="e_0_energy">    -99.88435795 </i>
   </energy>
  </scstep>
  <scstep>
   <time name="dav">    3.48    3.51</time>
   <time name="total">    3.95    3.98</time>
   <energy>
    <i name="e_fr_energy">    -99.90245304 </i>
    <i name="e_wo_entrp">    -99.87693660 </i>
    <i name="e_0_energy">    -99.89394756 </i>
   </energy>
  </scstep>
  <scstep>
   <time name="dav">    2.79    2.81</time>
   <time name="total">    3.27    3.29</time>
   <energy>
    <i name="e_fr_energy">    -99.91097091 </i>
    <i name="e_wo_entrp">    -99.88534173 </i>
    <i name="e_0_energy">    -99.90242785 </i>
   </energy>
  </scstep>
  <scstep>
   <time name="dav">    2.85    2.87</time>
   <time name="total">    3.32    3.35</time>
   <energy>
    <i name="e_fr_energy">    -99.91464510 </i>
    <i name="e_wo_entrp">    -99.88885657 </i>
    <i name="e_0_energy">    -99.90604892 </i>
   </energy>
  </scstep>
  <scstep>
   <time name="dav">    2.41    2.43</time>
   <time name="total">    2.49    2.51</time>
   <energy>
    <i name="alphaZ">    911.05318809 </i>
    <i name="ewald"> 162852.28015667 </i>
    <i name="hartreedc">-200693.65734587 </i>
    <i name="XCdc">   1247.68761567 </i>
    <i name="pawpsdc">  36549.51621058 </i>
    <i name="pawaedc"> -39564.79278761 </i>
    <i name="eentropy">     -0.02572878 </i>
    <i name="bandstr">   -348.79006413 </i>
    <i name="atom">  38946.81392559 </i>
    <i name="e_fr_energy">    -99.91482979 </i>
    <i name="e_wo_entrp">    -99.88910101 </i>
    <i name="e_0_energy">    -99.90625353 </i>
   </energy>
  </scstep>
  <dipole>
   <v name="dipole">      0.00000000       0.00000000      -0.02739466 </v>
   <i name="Tr[quadrupol]">  -1509.67000354 </i>
   <i name="Echarged">      0.00000000 </i>
   <i name="Edipol_quadrupol">      0.00000000 </i>
   <i name="Eion">      0.00000000 </i>
  </dipole>
  <structure>
   <crystal>
    <varray name="basis" >
     <v>       5.13359547       0.00000000       0.00000000 </v>
     <v>       2.56679773       4.44582409       0.00000000 </v>
     <v>       0.00000000       0.00000000      27.57468987 </v>
    </varray>
    <i name="volume">    629.33886683 </i>
    <varray name="rec_basis" >
     <v>       0.19479525      -0.11246509       0.00000000 </v>
     <v>       0.00000000       0.22493018       0.00000000 </v>
     <v>       0.00000000       0.00000000       0.03626514 </v>
    </varray>
   </crystal>
   <varray name="positions" >
    <v>       0.00000000       0.00000000       0.00000000 </v>
    <v>       0.00000000       0.50000000       0.00000000 </v>
    <v>       0.50000000       0.00000000       0.00000000 </v>
    <v>       0.50000000       0.50000000       0.00000000 </v>
    <v>       0.16666667       0.16666667       0.07600381 </v>
    <v>       0.16666667       0.66666667       0.07600381 </v>
    <v>       0.66666667       0.16666667       0.07600381 </v>
    <v>       0.66666667       0.66666667       0.07600381 </v>
    <v>       0.33333333       0.33333333       0.15200763 </v>
    <v>       0.33333333       0.83333333       0.15200763 </v>
    <v>       0.83333333       0.33333333       0.15200763 </v>
    <v>       0.83333333       0.83333333       0.15200763 </v>
    <v>       0.00000000       0.00000000       0.22801144 </v>
    <v>       0.00000000       0.50000000       0.22801144 </v>
    <v>       0.50000000       0.00000000       0.22801144 </v>
    <v>       0.50000000       0.50000000       0.22801144 </v>
    <v>       0.16666667       0.16666667       0.30401525 </v>
    <v>       0.16666667       0.66666667       0.30401525 </v>
    <v>       0.66666667       0.16666667       0.30401525 </v>
    <v>       0.66666667       0.66666667       0.30401525 </v>
    <v>       0.33333333       0.33333333       0.38001907 </v>
    <v>       0.33333333       0.83333333       0.38001907 </v>
    <v>       0.83333333       0.33333333       0.38001907 </v>
    <v>       0.83333333       0.83333333       0.38001907 </v>
    <v>       0.00000000       0.00000000       0.45602288 </v>
    <v>       0.00000000       0.50000000       0.45602288 </v>
    <v>       0.50000000       0.00000000       0.45602288 </v>
    <v>       0.50000000       0.50000000       0.45602288 </v>
   </varray>
  </structure>
  <varray name="forces" >
   <v>      -0.00000000      -0.00000000       0.09203248 </v>
   <v>      -0.00000000      -0.00000000       0.09203248 </v>
   <v>      -0.00000000       0.00000000       0.09203248 </v>
   <v>      -0.00000000      -0.00000000       0.09203248 </v>
   <v>      -0.00000000       0.00000000       0.26246647 </v>
   <v>      -0.00000000       0.00000000       0.26246647 </v>
   <v>      -0.00000000       0.00000000       0.26246647 </v>
   <v>       0.00000000       0.00000000       0.26246647 </v>
   <v>      -0.00000000       0.00000000      -0.08398498 </v>
   <v>       0.00000000      -0.00000000      -0.08398498 </v>
   <v>      -0.00000000       0.00000000      -0.08398498 </v>
   <v>       0.00000000       0.00000000      -0.08398498 </v>
   <v>      -0.00000000      -0.00000000       0.00217799 </v>
   <v>       0.00000000      -0.00000000       0.00217799 </v>
   <v>       0.00000000      -0.00000000       0.00217799 </v>
   <v>       0.00000000      -0.00000000       0.00217799 </v>
   <v>       0.00000000       0.00000000       0.07924297 </v>
   <v>       0.00000000      -0.00000000       0.07924297 </v>
   <v>      -0.00000000       0.00000000       0.07924297 </v>
   <v>       0.00000000       0.00000000       0.07924297 </v>
   <v>      -0.00000000      -0.00000000      -0.26056701 </v>
   <v>      -0.00000000      -0.00000000      -0.26056701 </v>
   <v>      -0.00000000      -0.00000000      -0.26056701 </v>
   <v>      -0.00000000      -0.00000000      -0.26056701 </v>
   <v>       0.00000000      -0.00000000      -0.09136791 </v>
   <v>      -0.00000000      -0.00000000      -0.09136791 </v>
   <v>      -0.00000000      -0.00000000      -0.09136791 </v>
   <v>      -0.00000000      -0.00000000      -0.09136791 </v>
  </varray>
  <varray name="stress" >
   <v>     -49.61131660       0.00000000       0.00000000 </v>
   <v>       0.00000000     -49.61131660       0.00000000 </v>
   <v>       0.00000000       0.00000000     -37.71544306 </v>
  </varray>
  <energy>
   <i name="e_fr_energy">   -111.31962609 </i>
   <i name="e_wo_entrp">   -111.29389731 </i>
   <i name="e_0_energy">   -111.31104983 </i>
  </energy>
  <time name="totalsc">  133.51  134.61</time>
 </calculation>
 <calculation>
  <scstep>
   <time name="dav">    3.44    3.47</time>
   <time name="total">    3.92    3.95</time>
   <energy>
    <i name="alphaZ">    911.05318809 </i>
    <i name="ewald"> 163071.31946636 </i>
    <i name="hartreedc">-200911.17970040 </i>
    <i name="XCdc">   1247.70728626 </i>
    <i name="pawpsdc">  36548.60609505 </i>
    <i name="pawaedc"> -39563.79719993 </i>
    <i name="eentropy">     -0.02705667 </i>
    <i name="bandstr">   -350.40944930 </i>
    <i name="atom">  38946.81392559 </i>
    <i name="e_fr_energy">    -99.91344495 </i>
    <i name="e_wo_entrp">    -99.88638828 </i>
    <i name="e_0_energy">    -99.90442606 </i>
   </energy>
  </scstep>
  <scstep>
   <time name="dav">    4.37    4.41</time>
   <time name="total">    4.85    4.89</time>
   <energy>
    <i name="e_fr_energy">    -99.92212340 </i>
    <i name="e_wo_entrp">    -99.89581297 </i>
    <i name="e_0_energy">    -99.91335326 </i>
   </energy>
  </scstep>
  <scstep>
   <time name="dav">    3.49    3.52</time>
   <time name="total">    3.96    4.00</time>
   <energy>
    <i name="e_fr_energy">    -99.92270872 </i>
    <i name="e_wo_entrp">    -99.89636860 </i>
    <i name="e_0_energy">    -99.91392868 </i>
   </energy>
  </scstep>
  <scstep>
   <time name="dav">    3.33    3.36</time>
   <time name="total">    3.80    3.83</time>
   <energy>
    <i name="e_fr_energy">    -99.92196583 </i>
    <i name="e_wo_entrp">    -99.89540346 </i>
    <i name="e_0_energy">    -99.91311170 </i>
   </energy>
  </scstep>
  <scstep>
   <time name="dav">    2.34    2.36</time>
   <time name="total">    2.41    2.43</time>
   <energy>
    <i name="alphaZ">    911.05318809 </i>
    <i name="ewald"> 163071.31946636 </i>
    <i name="hartreedc">-200910.98438719 </i>
    <i name="XCdc">   1247.70005143 </i>
    <i name="pawpsdc">  36550.73222625 </i>
    <i name="pawaedc"> -39565.89411309 </i>
    <i name="eentropy">     -0.02658523 </i>
    <i name="bandstr">   -350.63558269 </i>
    <i name="atom">  38946.81392559 </i>
    <i name="e_fr_energy">    -99.92181048 </i>
    <i name="e_wo_entrp">    -99.89522525 </i>
    <i name="e_0_energy">    -99.91294874 </i>
   </energy>
  </scstep>
  <dipole>
   <v name="dipole">      0.00000000       0.00000000      -0.01840098 </v>
   <i name="Tr[quadrupol]">  -1509.60412438 </i>
   <i name="Echarged">      0.00000000 </i>
   <i name="Edipol_quadrupol">      0.00000000 </i>
   <i name="Eion">      0.00000000 </i>
  </dipole>
  <structure>
   <crystal>
    <varray name="basis" >
     <v>       5.13359547       0.00000000       0.00000000 </v>
     <v>       2.56679773       4.44582409       0.00000000 </v>
     <v>       0.00000000       0.00000000      27.57468987 </v>
    </varray>
    <i name="volume">    629.33886683 </i>
    <varray name="rec_basis" >
     <v>       0.19479525      -0.11246509       0.00000000 </v>
     <v>       0.00000000       0.22493018       0.00000000 </v>
     <v>       0.00000000       0.00000000       0.03626514 </v>
    </varray>
   </crystal>
   <varray name="positions" >
    <v>       0.00000000       0.00000000       0.00000000 </v>
    <v>       0.00000000       0.50000000       0.00000000 </v>
    <v>       0.50000000       0.00000000       0.00000000 </v>
    <v>       0.50000000       0.50000000       0.00000000 </v>
    <v>       0.16666667       0.16666667       0.07600381 </v>
    <v>       0.16666667       0.66666667       0.07600381 </v>
    <v>       0.66666667       0.16666667       0.07600381 </v>
    <v>       0.66666667       0.66666667       0.07600381 </v>
    <v>       0.33333333       0.33333333       0.15186069 </v>
    <v>       0.33333333       0.83333333       0.15186069 </v>
    <v>       0.83333333       0.33333333       0.15186069 </v>
    <v>       0.83333333       0.83333333       0.15186069 </v>
    <v>      -0.00000000      -0.00000000       0.22801525 </v>
    <v>       0.00000000       0.50000000       0.22801525 </v>
    <v>       0.50000000      -0.00000000       0.22801525 </v>
    <v>       0.50000000       0.50000000       0.22801525 </v>
    <v>       0.16666667       0.16666667       0.30415389 </v>
    <v>       0.16666667       0.66666667       0.30415389 </v>
    <v>       0.66666667       0.16666667       0.30415389 </v>
    <v>       0.66666667       0.66666667       0.30415389 </v>
    <v>       0.33333333       0.33333333       0.37956320 </v>
    <v>       0.33333333       0.83333333       0.37956320 </v>
    <v>       0.83333333       0.33333333       0.37956320 </v>
    <v>       0.83333333       0.83333333       0.37956320 </v>
    <v>       0.00000000      -0.00000000       0.45586303 </v>
    <v>       0.00000000       0.50000000       0.45586303 </v>
    <v>       0.50000000      -0.00000000       0.45586303 </v>
    <v>       0.50000000       0.50000000       0.45586303 </v>
   </varray>
  </structure>
  <varray name="forces" >
   <v>       0.00000000       0.00000000       0.08583487 </v>
   <v>       0.00000000      -0.00000000       0.08583487 </v>
   <v>       0.00000000       0.00000000       0.08583487 </v>
   <v>       0.00000000      -0.00000000       0.08583487 </v>
   <v>      -0.00000000       0.00000000       0.24116324 </v>
   <v>      -0.00000000      -0.00000000       0.24116324 </v>
   <v>      -0.00000000      -0.00000000       0.24116324 </v>
   <v>       0.00000000      -0.00000000       0.24116324 </v>
   <v>       0.00000000      -0.00000000      -0.04621032 </v>
   <v>      -0.00000000      -0.00000000      -0.04621032 </v>
   <v>      -0.00000000       0.00000000      -0.04621032 </v>
   <v>      -0.00000000       0.00000000      -0.04621032 </v>
   <v>       0.00000000       0.00000000      -0.00828089 </v>
   <v>       0.00000000      -0.00000000      -0.00828089 </v>
   <v>       0.00000000       0.00000000      -0.00828089 </v>
   <v>       0.00000000       0.00000000      -0.00828089 </v>
   <v>       0.00000000      -0.00000000      -0.01564394 </v>
   <v>       0.00000000      -0.00000000      -0.01564394 </v>
   <v>       0.00000000       0.00000000      -0.01564394 </v>
   <v>      -0.00000000      -0.00000000      -0.01564394 </v>
   <v>       0.00000000       0.00000000      -0.14513048 </v>
   <v>       0.00000000       0.00000000      -0.14513048 </v>
   <v>       0.00000000       0.00000000      -0.14513048 </v>
   <v>       0.00000000       0.00000000      -0.14513048 </v>
   <v>       0.00000000      -0.00000000      -0.11173249 </v>
   <v>       0.00000000      -0.00000000      -0.11173249 </v>
   <v>       0.00000000      -0.00000000      -0.11173249 </v>
   <v>       0.00000000       0.00000000      -0.11173249 </v>
  </varray>
  <varray name="stress" >
   <v>     -44.25626234      -0.00000000      -0.00000000 </v>
   <v>       0.00000000     -44.25626234       0.00000000 </v>
   <v>       0.00000000      -0.00000000     -31.62961047 </v>
  </varray>
  <energy>
   <i name="e_fr_energy">   -111.33419991 </i>
   <i name="e_wo_entrp">   -111.30761468 </i>
   <i name="e_0_energy">   -111.32533817 </i>
  </energy>
  <time name="totalsc">   25.21   25.48</time>
 </calculation>
 <calculation>
  <scstep>
   <time name="dav">    3.45    3.48</time>
   <time name="total">    3.92    3.95</time>
   <energy>
    <i name="alphaZ">    911.05318809 </i>
    <i name="ewald"> 163195.24332652 </i>
    <i name="hartreedc">-201034.32199714 </i>
    <i name="XCdc">   1247.71954257 </i>
    <i name="pawpsdc">  36551.58492694 </i>
    <i name="pawaedc"> -39566.83905434 </i>
    <i name="eentropy">     -0.02739796 </i>
    <i name="bandstr">   -351.14680277 </i>
    <i name="atom">  38946.81392559 </i>
    <i name="e_fr_energy">    -99.92034252 </i>
    <i name="e_wo_entrp">    -99.89294455 </i>
    <i name="e_0_energy">    -99.91120986 </i>
   </energy>
  </scstep>
  <scstep>
   <time name="dav">    4.60    4.64</time>
   <time name="total">    5.07    5.11</time>
   <energy>
    <i name="e_fr_energy">    -99.92339620 </i>
    <i name="e_wo_entrp">    -99.89592421 </i>
    <i name="e_0_energy">    -99.91423887 </i>
   </energy>
  </scstep>
  <scstep>
   <time name="dav">    3.55    3.58</time>
   <time name="total">    4.02    4.06</time>
   <energy>
    <i name="e_fr_energy">    -99.92368666 </i>
    <i name="e_wo_entrp">    -99.89641026 </i>
    <i name="e_0_energy">    -99.91459452 </i>
   </energy>
  </scstep>
  <scstep>
   <time name="dav">    3.20    3.23</time>
   <time name="total">    3.67    3.70</time>
   <energy>
    <i name="e_fr_energy">    -99.92303590 </i>
    <i name="e_wo_entrp">    -99.89591029 </i>
    <i name="e_0_energy">    -99.91399403 </i>
   </energy>
  </scstep>
  <scstep>
   <time name="dav">    2.56    2.59</time>
   <time name="total">    2.64    2.66</time>
   <energy>
    <i name="alphaZ">    911.05318809 </i>
    <i name="ewald"> 163195.24332652 </i>
    <i name="hartreedc">-201034.40631360 </i>
    <i name="XCdc">   1247.71561188 </i>
    <i name="pawpsdc">  36553.41881890 </i>
    <i name="pawaedc"> -39568.70404372 </i>
    <i name="eentropy">     -0.02748841 </i>
    <i name="bandstr">   -351.03006120 </i>
    <i name="atom">  38946.81392559 </i>
    <i name="e_fr_energy">    -99.92303595 </i>
    <i name="e_wo_entrp">    -99.89554754 </i>
    <i name="e_0_energy">    -99.91387314 </i>
   </energy>
  </scstep>
  <dipole>
   <v name="dipole">      0.00000000       0.00000000      -0.01054534 </v>
   <i name="Tr[quadrupol]">  -1509.57970465 </i>
   <i name="Echarged">      0.00000000 </i>
   <i name="Edipol_quadrupol">      0.00000000 </i>
   <i name="Eion">      0.00000000 </i>
  </dipole>
  <structure>
   <crystal>
    <varray name="basis" >
     <v>       5.13359547       0.00000000       0.00000000 </v>
     <v>       2.56679773       4.44582409       0.00000000 </v>
     <v>       0.00000000       0.00000000      27.57468987 </v>
    </varray>
    <i name="volume">    629.33886683 </i>
    <varray name="rec_basis" >
     <v>       0.19479525      -0.11246509       0.00000000 </v>
     <v>       0.00000000       0.22493018       0.00000000 </v>
     <v>       0.00000000       0.00000000       0.03626514 </v>
    </varray>
   </crystal>
   <varray name="positions" >
    <v>       0.00000000       0.00000000       0.00000000 </v>
    <v>       0.00000000       0.50000000       0.00000000 </v>
    <v>       0.50000000       0.00000000       0.00000000 </v>
    <v>       0.50000000       0.50000000       0.00000000 </v>
    <v>       0.16666667       0.16666667       0.07600381 </v>
    <v>       0.16666667       0.66666667       0.07600381 </v>
    <v>       0.66666667       0.16666667       0.07600381 </v>
    <v>       0.66666667       0.66666667       0.07600381 </v>
    <v>       0.33333333       0.33333333       0.15177774 </v>
    <v>       0.33333333       0.83333333       0.15177774 </v>
    <v>       0.83333333       0.33333333       0.15177774 </v>
    <v>       0.83333333       0.83333333       0.15177774 </v>
    <v>      -0.00000000      -0.00000000       0.22801740 </v>
    <v>       0.00000000       0.50000000       0.22801740 </v>
    <v>       0.50000000      -0.00000000       0.22801740 </v>
    <v>       0.50000000       0.50000000       0.22801740 </v>
    <v>       0.16666667       0.16666667       0.30423216 </v>
    <v>       0.16666667       0.66666667       0.30423216 </v>
    <v>       0.66666667       0.16666667       0.30423216 </v>
    <v>       0.66666667       0.66666667       0.30423216 </v>
    <v>       0.33333333       0.33333333       0.37930582 </v>
    <v>       0.33333333       0.83333333       0.37930582 </v>
    <v>       0.83333333       0.33333333       0.37930582 </v>
    <v>       0.83333333       0.83333333       0.37930582 </v>
    <v>       0.00000000      -0.00000000       0.45577278 </v>
    <v>       0.00000000       0.50000000       0.45577278 </v>
    <v>       0.50000000      -0.00000000       0.45577278 </v>
    <v>       0.50000000       0.50000000       0.45577278 </v>
   </varray>
  </structure>
  <varray name="forces" >
   <v>       0.00000000      -0.00000000       0.08823448 </v>
   <v>       0.00000000       0.00000000       0.08823448 </v>
   <v>       0.00000000      -0.00000000       0.08823448 </v>
   <v>       0.00000000       0.00000000       0.08823448 </v>
   <v>      -0.00000000      -0.00000000       0.23742684 </v>
   <v>      -0.00000000      -0.00000000       0.23742684 </v>
   <v>      -0.00000000       0.00000000       0.23742684 </v>
   <v>      -0.00000000       0.00000000       0.23742684 </v>
   <v>       0.00000000       0.00000000      -0.03403768 </v>
   <v>       0.00000000       0.00000000      -0.03403768 </v>
   <v>       0.00000000       0.00000000      -0.03403768 </v>
   <v>       0.00000000      -0.00000000      -0.03403768 </v>
   <v>       0.00000000      -0.00000000      -0.00350873 </v>
   <v>       0.00000000       0.00000000      -0.00350873 </v>
   <v>       0.00000000      -0.00000000      -0.00350873 </v>
   <v>       0.00000000       0.00000000      -0.00350873 </v>
   <v>      -0.00000000       0.00000000      -0.04540950 </v>
   <v>      -0.00000000      -0.00000000      -0.04540950 </v>
   <v>       0.00000000       0.00000000      -0.04540950 </v>
   <v>      -0.00000000      -0.00000000      -0.04540950 </v>
   <v>       0.00000000      -0.00000000      -0.11292998 </v>
   <v>      -0.00000000      -0.00000000      -0.11292998 </v>
   <v>      -0.00000000      -0.00000000      -0.11292998 </v>
   <v>       0.00000000      -0.00000000      -0.11292998 </v>
   <v>       0.00000000      -0.00000000      -0.12977542 </v>
   <v>       0.00000000       0.00000000      -0.12977542 </v>
   <v>       0.00000000       0.00000000      -0.12977542 </v>
   <v>       0.00000000       0.00000000      -0.12977542 </v>
  </varray>
  <varray name="stress" >
   <v>     -47.40035122      -0.00000000       0.00000000 </v>
   <v>      -0.00000000     -47.40035122      -0.00000000 </v>
   <v>      -0.00000000       0.00000000     -34.51623158 </v>
  </varray>
  <energy>
   <i name="e_fr_energy">   -111.33971601 </i>
   <i name="e_wo_entrp">   -111.31222760 </i>
   <i name="e_0_energy">   -111.33055321 </i>
  </energy>
  <time name="totalsc">   25.59   25.84</time>
 </calculation>
 <calculation>
  <scstep>
   <time name="dav">    3.42    3.45</time>
   <time name="total">    3.90    3.93</time>
   <energy>
    <i name="alphaZ">    911.05318809 </i>
    <i name="ewald"> 163443.64785475 </i>
    <i name="hartreedc">-201282.00027151 </i>
    <i name="XCdc">   1247.75404257 </i>
    <i name="pawpsdc">  36553.75159913 </i>
    <i name="pawaedc"> -39569.03929296 </i>
    <i name="eentropy">     -0.02880633 </i>
    <i name="bandstr">   -351.86215602 </i>
    <i name="atom">  38946.81392559 </i>
    <i name="e_fr_energy">    -99.90991668 </i>
    <i name="e_wo_entrp">    -99.88111035 </i>
    <i name="e_0_energy">    -99.90031457 </i>
   </energy>
  </scstep>
  <scstep>
   <time name="dav">    4.38    4.42</time>
   <time name="total">    4.86    4.90</time>
   <energy>
    <i name="e_fr_energy">    -99.92108226 </i>
    <i name="e_wo_entrp">    -99.89227019 </i>
    <i name="e_0_energy">    -99.91147823 </i>
   </energy>
  </scstep>
  <scstep>
   <time name="dav">    3.48    3.51</time>
   <time name="total">    3.95    3.98</time>
   <energy>
    <i name="e_fr_energy">    -99.92146689 </i>
    <i name="e_wo_entrp">    -99.89341999 </i>
    <i name="e_0_energy">    -99.91211792 </i>
   </energy>
  </scstep>
  <scstep>
   <time name="dav">    3.40    3.43</time>
   <time name="total">    3.87    3.90</time>
   <energy>
    <i name="e_fr_energy">    -99.92068692 </i>
    <i name="e_wo_entrp">    -99.89249217 </i>
    <i name="e_0_energy">    -99.91128867 </i>
   </energy>
  </scstep>
  <scstep>
   <time name="dav">    2.91    2.94</time>
   <time name="total">    2.99    3.01</time>
   <energy>
    <i name="alphaZ">    911.05318809 </i>
    <i name="ewald"> 163443.64785475 </i>
    <i name="hartreedc">-201282.30606284 </i>
    <i name="XCdc">   1247.73956569 </i>
    <i name="pawpsdc">  36557.01658506 </i>
    <i name="pawaedc"> -39572.27939379 </i>
    <i name="eentropy">     -0.02880909 </i>
    <i name="bandstr">   -351.57735091 </i>
    <i name="atom">  38946.81392559 </i>
    <i name="e_fr_energy">    -99.92049746 </i>
    <i name="e_wo_entrp">    -99.89168837 </i>
    <i name="e_0_energy">    -99.91089443 </i>
   </energy>
  </scstep>
  <dipole>
   <v name="dipole">      0.00000000       0.00000000      -0.00762712 </v>
   <i name="Tr[quadrupol]">  -1509.57166959 </i>
   <i name="Echarged">      0.00000000 </i>
   <i name="Edipol_quadrupol">      0.00000000 </i>
   <i name="Eion">      0.00000000 </i>
  </dipole>
  <structure>
   <crystal>
    <varray name="basis" >
     <v>       5.13359547       0.00000000       0.00000000 </v>
     <v>       2.56679773       4.44582409       0.00000000 </v>
     <v>       0.00000000       0.00000000      27.57468987 </v>
    </varray>
    <i name="volume">    629.33886683 </i>
    <varray name="rec_basis" >
     <v>       0.19479525      -0.11246509       0.00000000 </v>
     <v>       0.00000000       0.22493018       0.00000000 </v>
     <v>       0.00000000       0.00000000       0.03626514 </v>
    </varray>
   </crystal>
   <varray name="positions" >
    <v>       0.00000000       0.00000000       0.00000000 </v>
    <v>       0.00000000       0.50000000       0.00000000 </v>
    <v>       0.50000000       0.00000000       0.00000000 </v>
    <v>       0.50000000       0.50000000       0.00000000 </v>
    <v>       0.16666667       0.16666667       0.07600381 </v>
    <v>       0.16666667       0.66666667       0.07600381 </v>
    <v>       0.66666667       0.16666667       0.07600381 </v>
    <v>       0.66666667       0.66666667       0.07600381 </v>
    <v>       0.33333333       0.33333333       0.15161182 </v>
    <v>       0.33333333       0.83333333       0.15161182 </v>
    <v>       0.83333333       0.33333333       0.15161182 </v>
    <v>       0.83333333       0.83333333       0.15161182 </v>
    <v>      -0.00000000      -0.00000000       0.22802170 </v>
    <v>       0.00000000       0.50000000       0.22802170 </v>
    <v>       0.50000000      -0.00000000       0.22802170 </v>
    <v>       0.50000000       0.50000000       0.22802170 </v>
    <v>       0.16666667       0.16666667       0.30438871 </v>
    <v>       0.16666667       0.66666667       0.30438871 </v>
    <v>       0.66666667       0.16666667       0.30438871 </v>
    <v>       0.66666667       0.66666667       0.30438871 </v>
    <v>       0.33333333       0.33333333       0.37879107 </v>
    <v>       0.33333333       0.83333333       0.37879107 </v>
    <v>       0.83333333       0.33333333       0.37879107 </v>
    <v>       0.83333333       0.83333333       0.37879107 </v>
    <v>       0.00000000      -0.00000000       0.45559228 </v>
    <v>       0.00000000       0.50000000       0.45559228 </v>
    <v>       0.50000000      -0.00000000       0.45559228 </v>
    <v>       0.50000000       0.50000000       0.45559228 </v>
   </varray>
  </structure>
  <varray name="forces" >
   <v>       0.00000000       0.00000000       0.08709048 </v>
   <v>      -0.00000000      -0.00000000       0.08709048 </v>
   <v>      -0.00000000       0.00000000       0.08709048 </v>
   <v>      -0.00000000      -0.00000000       0.08709048 </v>
   <v>       0.00000000       0.00000000       0.21469020 </v>
   <v>      -0.00000000       0.00000000       0.21469020 </v>
   <v>       0.00000000       0.00000000       0.21469020 </v>
   <v>       0.00000000       0.00000000       0.21469020 </v>
   <v>      -0.00000000      -0.00000000       0.00279988 </v>
   <v>       0.00000000      -0.00000000       0.00279988 </v>
   <v>      -0.00000000      -0.00000000       0.00279988 </v>
   <v>       0.00000000       0.00000000       0.00279988 </v>
   <v>      -0.00000000      -0.00000000      -0.00690879 </v>
   <v>      -0.00000000      -0.00000000      -0.00690879 </v>
   <v>      -0.00000000      -0.00000000      -0.00690879 </v>
   <v>      -0.00000000      -0.00000000      -0.00690879 </v>
   <v>       0.00000000      -0.00000000      -0.14136946 </v>
   <v>       0.00000000       0.00000000      -0.14136946 </v>
   <v>      -0.00000000      -0.00000000      -0.14136946 </v>
   <v>       0.00000000      -0.00000000      -0.14136946 </v>
   <v>       0.00000000      -0.00000000      -0.00080731 </v>
   <v>       0.00000000      -0.00000000      -0.00080731 </v>
   <v>      -0.00000000      -0.00000000      -0.00080731 </v>
   <v>      -0.00000000      -0.00000000      -0.00080731 </v>
   <v>       0.00000000      -0.00000000      -0.15549501 </v>
   <v>       0.00000000      -0.00000000      -0.15549501 </v>
   <v>      -0.00000000      -0.00000000      -0.15549501 </v>
   <v>      -0.00000000      -0.00000000      -0.15549501 </v>
  </varray>
  <varray name="stress" >
   <v>     -45.05918736       0.00000000      -0.00000000 </v>
   <v>      -0.00000000     -45.05918736       0.00000000 </v>
   <v>      -0.00000000      -0.00000000     -31.57625048 </v>
  </varray>
  <energy>
   <i name="e_fr_energy">   -111.34571281 </i>
   <i name="e_wo_entrp">   -111.31690372 </i>
   <i name="e_0_energy">   -111.33610978 </i>
  </energy>
  <time name="totalsc">   25.83   26.06</time>
 </calculation>
 <calculation>
  <scstep>
   <time name="dav">    3.46    3.49</time>
   <time name="total">    3.94    3.97</time>
   <energy>
    <i name="alphaZ">    911.05318809 </i>
    <i name="ewald"> 163862.92396112 </i>
    <i name="hartreedc">-201700.10836867 </i>
    <i name="XCdc">   1247.81750791 </i>
    <i name="pawpsdc">  36557.98388857 </i>
    <i name="pawaedc"> -39573.31913613 </i>
    <i name="eentropy">     -0.02821718 </i>
    <i name="bandstr">   -353.04837109 </i>
    <i name="atom">  38946.81392559 </i>
    <i name="e_fr_energy">    -99.91162178 </i>
    <i name="e_wo_entrp">    -99.88340460 </i>
    <i name="e_0_energy">    -99.90221606 </i>
   </energy>
  </scstep>
  <scstep>
   <time name="dav">    4.85    4.89</time>
   <time name="total">    5.32    5.37</time>
   <energy>
    <i name="e_fr_energy">    -99.92292920 </i>
    <i name="e_wo_entrp">    -99.89270851 </i>
    <i name="e_0_energy">    -99.91285564 </i>
   </energy>
  </scstep>
  <scstep>
   <time name="dav">    3.73    3.76</time>
   <time name="total">    4.19    4.23</time>
   <energy>
    <i name="e_fr_energy">    -99.92190303 </i>
    <i name="e_wo_entrp">    -99.89354809 </i>
    <i name="e_0_energy">    -99.91245138 </i>
   </energy>
  </scstep>
  <scstep>
   <time name="dav">    3.46    3.49</time>
   <time name="total">    3.94    3.97</time>
   <energy>
    <i name="e_fr_energy">    -99.92155187 </i>
    <i name="e_wo_entrp">    -99.89348354 </i>
    <i name="e_0_energy">    -99.91219576 </i>
   </energy>
  </scstep>
  <scstep>
   <time name="dav">    3.34    3.36</time>
   <time name="total">    3.81    3.84</time>
   <energy>
    <i name="e_fr_energy">    -99.92108096 </i>
    <i name="e_wo_entrp">    -99.89233926 </i>
    <i name="e_0_energy">    -99.91150039 </i>
   </energy>
  </scstep>
  <scstep>
   <time name="dav">    3.29    3.32</time>
   <time name="total">    3.76    3.79</time>
   <energy>
    <i name="e_fr_energy">    -99.92085745 </i>
    <i name="e_wo_entrp">    -99.89224216 </i>
    <i name="e_0_energy">    -99.91131902 </i>
   </energy>
  </scstep>
  <scstep>
   <time name="dav">    3.81    3.84</time>
   <time name="total">    3.88    3.92</time>
   <energy>
    <i name="alphaZ">    911.05318809 </i>
    <i name="ewald"> 163862.92396112 </i>
    <i name="hartreedc">-201699.89142776 </i>
    <i name="XCdc">   1247.79605234 </i>
    <i name="pawpsdc">  36568.12031006 </i>
    <i name="pawaedc"> -39583.67991216 </i>
    <i name="eentropy">     -0.02873022 </i>
    <i name="bandstr">   -353.02811606 </i>
    <i name="atom">  38946.81392559 </i>
    <i name="e_fr_energy">    -99.92074900 </i>
    <i name="e_wo_entrp">    -99.89201879 </i>
    <i name="e_0_energy">    -99.91117226 </i>
   </energy>
  </scstep>
  <dipole>
   <v name="dipole">      0.00000000       0.00000000      -0.00229665 </v>
   <i name="Tr[quadrupol]">  -1509.53741716 </i>
   <i name="Echarged">      0.00000000 </i>
   <i name="Edipol_quadrupol">      0.00000000 </i>
   <i name="Eion">      0.00000000 </i>
  </dipole>
  <structure>
   <crystal>
    <varray name="basis" >
     <v>       5.13359547       0.00000000       0.00000000 </v>
     <v>       2.56679773       4.44582409       0.00000000 </v>
     <v>       0.00000000       0.00000000      27.57468987 </v>
    </varray>
    <i name="volume">    629.33886683 </i>
    <varray name="rec_basis" >
     <v>       0.19479525      -0.11246509       0.00000000 </v>
     <v>       0.00000000       0.22493018       0.00000000 </v>
     <v>       0.00000000       0.00000000       0.03626514 </v>
    </varray>
   </crystal>
   <varray name="positions" >
    <v>       0.00000000       0.00000000       0.00000000 </v>
    <v>       0.00000000       0.50000000       0.00000000 </v>
    <v>       0.50000000       0.00000000       0.00000000 </v>
    <v>       0.50000000       0.50000000       0.00000000 </v>
    <v>       0.16666667       0.16666667       0.07600381 </v>
    <v>       0.16666667       0.66666667       0.07600381 </v>
    <v>       0.66666667       0.16666667       0.07600381 </v>
    <v>       0.66666667       0.66666667       0.07600381 </v>
    <v>       0.33333333       0.33333333       0.15152779 </v>
    <v>       0.33333333       0.83333333       0.15152779 </v>
    <v>       0.83333333       0.33333333       0.15152779 </v>
    <v>       0.83333333       0.83333333       0.15152779 </v>
    <v>       0.00000000      -0.00000000       0.22800787 </v>
    <v>       0.00000000       0.50000000       0.22800787 </v>
    <v>       0.50000000      -0.00000000       0.22800787 </v>
    <v>       0.50000000       0.50000000       0.22800787 </v>
    <v>       0.16666667       0.16666667       0.30414307 </v>
    <v>       0.16666667       0.66666667       0.30414307 </v>
    <v>       0.66666667       0.16666667       0.30414307 </v>
    <v>       0.66666667       0.66666667       0.30414307 </v>
    <v>       0.33333333       0.33333333       0.37850812 </v>
    <v>       0.33333333       0.83333333       0.37850812 </v>
    <v>       0.83333333       0.33333333       0.37850812 </v>
    <v>       0.83333333       0.83333333       0.37850812 </v>
    <v>       0.00000000      -0.00000000       0.45512953 </v>
    <v>       0.00000000       0.50000000       0.45512953 </v>
    <v>       0.50000000      -0.00000000       0.45512953 </v>
    <v>       0.50000000       0.50000000       0.45512953 </v>
   </varray>
  </structure>
  <varray name="forces" >
   <v>      -0.00000000      -0.00000000       0.08997131 </v>
   <v>      -0.00000000      -0.00000000       0.08997131 </v>
   <v>      -0.00000000      -0.00000000       0.08997131 </v>
   <v>      -0.00000000      -0.00000000       0.08997131 </v>
   <v>      -0.00000000      -0.00000000       0.21016081 </v>
   <v>       0.00000000      -0.00000000       0.21016081 </v>
   <v>      -0.00000000      -0.00000000       0.21016081 </v>
   <v>      -0.00000000      -0.00000000       0.21016081 </v>
   <v>      -0.00000000       0.00000000       0.01433490 </v>
   <v>      -0.00000000      -0.00000000       0.01433490 </v>
   <v>      -0.00000000      -0.00000000       0.01433490 </v>
   <v>      -0.00000000      -0.00000000       0.01433490 </v>
   <v>      -0.00000000      -0.00000000      -0.03120565 </v>
   <v>      -0.00000000       0.00000000      -0.03120565 </v>
   <v>      -0.00000000      -0.00000000      -0.03120565 </v>
   <v>      -0.00000000      -0.00000000      -0.03120565 </v>
   <v>       0.00000000       0.00000000      -0.10854326 </v>
   <v>       0.00000000       0.00000000      -0.10854326 </v>
   <v>       0.00000000       0.00000000      -0.10854326 </v>
   <v>       0.00000000       0.00000000      -0.10854326 </v>
   <v>       0.00000000       0.00000000      -0.03129741 </v>
   <v>       0.00000000      -0.00000000      -0.03129741 </v>
   <v>      -0.00000000       0.00000000      -0.03129741 </v>
   <v>      -0.00000000       0.00000000      -0.03129741 </v>
   <v>       0.00000000       0.00000000      -0.14342070 </v>
   <v>       0.00000000      -0.00000000      -0.14342070 </v>
   <v>       0.00000000       0.00000000      -0.14342070 </v>
   <v>      -0.00000000      -0.00000000      -0.14342070 </v>
  </varray>
  <varray name="stress" >
   <v>     -47.35064693      -0.00000000       0.00000000 </v>
   <v>       0.00000000     -47.35064693       0.00000000 </v>
   <v>       0.00000000       0.00000000     -33.04631093 </v>
  </varray>
  <energy>
   <i name="e_fr_energy">   -111.35688584 </i>
   <i name="e_wo_entrp">   -111.32815563 </i>
   <i name="e_0_energy">   -111.34730911 </i>
  </energy>
  <time name="totalsc">   35.11   35.44</time>
 </calculation>
 <calculation>
  <scstep>
   <time name="dav">    3.43    3.46</time>
   <time name="total">    3.90    3.94</time>
   <energy>
    <i name="alphaZ">    911.05318809 </i>
    <i name="ewald"> 165124.09550015 </i>
    <i name="hartreedc">-202959.66828938 </i>
    <i name="XCdc">   1248.03033744 </i>
    <i name="pawpsdc">  36568.11088627 </i>
    <i name="pawaedc"> -39583.66095074 </i>
    <i name="eentropy">     -0.02860439 </i>
    <i name="bandstr">   -354.56518197 </i>
    <i name="atom">  38946.81392559 </i>
    <i name="e_fr_energy">    -99.81918893 </i>
    <i name="e_wo_entrp">    -99.79058454 </i>
    <i name="e_0_energy">    -99.80965413 </i>
   </energy>
  </scstep>
  <scstep>
   <time name="dav">    4.71    4.75</time>
   <time name="total">    5.18    5.22</time>
   <energy>
    <i name="e_fr_energy">    -99.94213882 </i>
    <i name="e_wo_entrp">    -99.91385697 </i>
    <i name="e_0_energy">    -99.93271154 </i>
   </energy>
  </scstep>
  <scstep>
   <time name="dav">    4.96    5.00</time>
   <time name="total">    5.44    5.48</time>
   <energy>
    <i name="e_fr_energy">    -99.94799922 </i>
    <i name="e_wo_entrp">    -99.92127687 </i>
    <i name="e_0_energy">    -99.93909177 </i>
   </energy>
  </scstep>
  <scstep>
   <time name="dav">    4.16    4.20</time>
   <time name="total">    4.63    4.66</time>
   <energy>
    <i name="e_fr_energy">    -99.92138128 </i>
    <i name="e_wo_entrp">    -99.89435324 </i>
    <i name="e_0_energy">    -99.91237193 </i>
   </energy>
  </scstep>
  <scstep>
   <time name="dav">    3.85    3.89</time>
   <time name="total">    4.33    4.36</time>
   <energy>
    <i name="e_fr_energy">    -99.91907358 </i>
    <i name="e_wo_entrp">    -99.89035548 </i>
    <i name="e_0_energy">    -99.90950088 </i>
   </energy>
  </scstep>
  <scstep>
   <time name="dav">    3.47    3.50</time>
   <time name="total">    3.94    3.97</time>
   <energy>
    <i name="e_fr_energy">    -99.91855090 </i>
    <i name="e_wo_entrp">    -99.89024664 </i>
    <i name="e_0_energy">    -99.90911615 </i>
   </energy>
  </scstep>
  <scstep>
   <time name="dav">    3.59    3.62</time>
   <time name="total">    4.06    4.09</time>
   <energy>
    <i name="e_fr_energy">    -99.91657630 </i>
    <i name="e_wo_entrp">    -99.88788076 </i>
    <i name="e_0_energy">    -99.90701112 </i>
   </energy>
  </scstep>
  <scstep>
   <time name="dav">    4.76    4.80</time>
   <time name="total">    5.24    5.28</time>
   <energy>
    <i name="e_fr_energy">    -99.91648633 </i>
    <i name="e_wo_entrp">    -99.88830646 </i>
    <i name="e_0_energy">    -99.90709304 </i>
   </energy>
  </scstep>
  <scstep>
   <time name="dav">    3.24    3.27</time>
   <time name="total">    3.71    3.74</time>
   <energy>
    <i name="e_fr_energy">    -99.91623226 </i>
    <i name="e_wo_entrp">    -99.88797090 </i>
    <i name="e_0_energy">    -99.90681180 </i>
   </energy>
  </scstep>
  <scstep>
   <time name="dav">    2.58    2.60</time>
   <time name="total">    2.65    2.67</time>
   <energy>
    <i name="alphaZ">    911.05318809 </i>
    <i name="ewald"> 165124.09550015 </i>
    <i name="hartreedc">-202958.11603019 </i>
    <i name="XCdc">   1247.95293371 </i>
    <i name="pawpsdc">  36593.20656238 </i>
    <i name="pawaedc"> -39609.24822336 </i>
    <i name="eentropy">     -0.02843600 </i>
    <i name="bandstr">   -355.64565050 </i>
    <i name="atom">  38946.81392559 </i>
    <i name="e_fr_energy">    -99.91623012 </i>
    <i name="e_wo_entrp">    -99.88779412 </i>
    <i name="e_0_energy">    -99.90675146 </i>
   </energy>
  </scstep>
  <dipole>
   <v name="dipole">      0.00000000       0.00000000      -0.00086316 </v>
   <i name="Tr[quadrupol]">  -1509.52006160 </i>
   <i name="Echarged">      0.00000000 </i>
   <i name="Edipol_quadrupol">      0.00000000 </i>
   <i name="Eion">      0.00000000 </i>
  </dipole>
  <structure>
   <crystal>
    <varray name="basis" >
     <v>       5.13359547       0.00000000       0.00000000 </v>
     <v>       2.56679773       4.44582409       0.00000000 </v>
     <v>       0.00000000       0.00000000      27.57468987 </v>
    </varray>
    <i name="volume">    629.33886683 </i>
    <varray name="rec_basis" >
     <v>       0.19479525      -0.11246509       0.00000000 </v>
     <v>       0.00000000       0.22493018       0.00000000 </v>
     <v>       0.00000000       0.00000000       0.03626514 </v>
    </varray>
   </crystal>
   <varray name="positions" >
    <v>       0.00000000       0.00000000       0.00000000 </v>
    <v>       0.00000000       0.50000000       0.00000000 </v>
    <v>       0.50000000       0.00000000       0.00000000 </v>
    <v>       0.50000000       0.50000000       0.00000000 </v>
    <v>       0.16666667       0.16666667       0.07600381 </v>
    <v>       0.16666667       0.66666667       0.07600381 </v>
    <v>       0.66666667       0.16666667       0.07600381 </v>
    <v>       0.66666667       0.66666667       0.07600381 </v>
    <v>       0.33333333       0.33333333       0.15127569 </v>
    <v>       0.33333333       0.83333333       0.15127569 </v>
    <v>       0.83333333       0.33333333       0.15127569 </v>
    <v>       0.83333333       0.83333333       0.15127569 </v>
    <v>       0.00000000      -0.00000000       0.22796638 </v>
    <v>       0.00000000       0.50000000       0.22796638 </v>
    <v>       0.50000000      -0.00000000       0.22796638 </v>
    <v>       0.50000000       0.50000000       0.22796638 </v>
    <v>       0.16666667       0.16666667       0.30340616 </v>
    <v>       0.16666667       0.66666667       0.30340616 </v>
    <v>       0.66666667       0.16666667       0.30340616 </v>
    <v>       0.66666667       0.66666667       0.30340616 </v>
    <v>       0.33333333       0.33333333       0.37765925 </v>
    <v>       0.33333333       0.83333333       0.37765925 </v>
    <v>       0.83333333       0.33333333       0.37765925 </v>
    <v>       0.83333333       0.83333333       0.37765925 </v>
    <v>       0.00000000      -0.00000000       0.45374127 </v>
    <v>       0.00000000       0.50000000       0.45374127 </v>
    <v>       0.50000000      -0.00000000       0.45374127 </v>
    <v>       0.50000000       0.50000000       0.45374127 </v>
   </varray>
  </structure>
  <varray name="forces" >
   <v>      -0.00000000      -0.00000000       0.09055751 </v>
   <v>      -0.00000000      -0.00000000       0.09055751 </v>
   <v>      -0.00000000       0.00000000       0.09055751 </v>
   <v>      -0.00000000       0.00000000       0.09055751 </v>
   <v>      -0.00000000      -0.00000000       0.18129597 </v>
   <v>       0.00000000       0.00000000       0.18129597 </v>
   <v>      -0.00000000       0.00000000       0.18129597 </v>
   <v>       0.00000000       0.00000000       0.18129597 </v>
   <v>      -0.00000000      -0.00000000       0.06663516 </v>
   <v>       0.00000000      -0.00000000       0.06663516 </v>
   <v>       0.00000000       0.00000000       0.06663516 </v>
   <v>      -0.00000000       0.00000000       0.06663516 </v>
   <v>       0.00000000       0.00000000      -0.12384662 </v>
   <v>       0.00000000       0.00000000      -0.12384662 </v>
   <v>       0.00000000       0.00000000      -0.12384662 </v>
   <v>       0.00000000       0.00000000      -0.12384662 </v>
   <v>      -0.00000000      -0.00000000      -0.05834722 </v>
   <v>       0.00000000       0.00000000      -0.05834722 </v>
   <v>       0.00000000       0.00000000      -0.05834722 </v>
   <v>       0.00000000       0.00000000      -0.05834722 </v>
   <v>      -0.00000000       0.00000000      -0.05895036 </v>
   <v>       0.00000000       0.00000000      -0.05895036 </v>
   <v>      -0.00000000      -0.00000000      -0.05895036 </v>
   <v>       0.00000000      -0.00000000      -0.05895036 </v>
   <v>      -0.00000000      -0.00000000      -0.09734445 </v>
   <v>      -0.00000000      -0.00000000      -0.09734445 </v>
   <v>      -0.00000000      -0.00000000      -0.09734445 </v>
   <v>      -0.00000000      -0.00000000      -0.09734445 </v>
  </varray>
  <varray name="stress" >
   <v>     -47.17282695       0.00000000       0.00000000 </v>
   <v>       0.00000000     -47.17282695      -0.00000000 </v>
   <v>       0.00000000       0.00000000     -30.93062465 </v>
  </varray>
  <energy>
   <i name="e_fr_energy">   -111.38530385 </i>
   <i name="e_wo_entrp">   -111.35686785 </i>
   <i name="e_0_energy">   -111.37582519 </i>
  </energy>
  <time name="totalsc">   49.35   49.78</time>
 </calculation>
 <calculation>
  <scstep>
   <time name="dav">    3.49    3.52</time>
   <time name="total">    3.97    4.01</time>
   <energy>
    <i name="alphaZ">    911.05318809 </i>
    <i name="ewald"> 167661.46608591 </i>
    <i name="hartreedc">-205493.79246145 </i>
    <i name="XCdc">   1248.48114381 </i>
    <i name="pawpsdc">  36593.26112711 </i>
    <i name="pawaedc"> -39609.28358974 </i>
    <i name="eentropy">     -0.02733411 </i>
    <i name="bandstr">   -357.42449189 </i>
    <i name="atom">  38946.81392559 </i>
    <i name="e_fr_energy">    -99.45240668 </i>
    <i name="e_wo_entrp">    -99.42507258 </i>
    <i name="e_0_energy">    -99.44329531 </i>
   </energy>
  </scstep>
  <scstep>
   <time name="dav">    4.77    4.81</time>
   <time name="total">    5.23    5.28</time>
   <energy>
    <i name="e_fr_energy">   -100.01776541 </i>
    <i name="e_wo_entrp">    -99.99240117 </i>
    <i name="e_0_energy">   -100.00931066 </i>
   </energy>
  </scstep>
  <scstep>
   <time name="dav">    4.86    4.90</time>
   <time name="total">    5.33    5.37</time>
   <energy>
    <i name="e_fr_energy">   -100.01805820 </i>
    <i name="e_wo_entrp">    -99.98441284 </i>
    <i name="e_0_energy">   -100.00684308 </i>
   </energy>
  </scstep>
  <scstep>
   <time name="dav">    4.32    4.36</time>
   <time name="total">    4.80    4.84</time>
   <energy>
    <i name="e_fr_energy">    -99.89806737 </i>
    <i name="e_wo_entrp">    -99.87108459 </i>
    <i name="e_0_energy">    -99.88907311 </i>
   </energy>
  </scstep>
  <scstep>
   <time name="dav">    3.94    3.97</time>
   <time name="total">    4.41    4.44</time>
   <energy>
    <i name="e_fr_energy">    -99.88739348 </i>
    <i name="e_wo_entrp">    -99.86038670 </i>
    <i name="e_0_energy">    -99.87839122 </i>
   </energy>
  </scstep>
  <scstep>
   <time name="dav">    3.55    3.58</time>
   <time name="total">    4.03    4.06</time>
   <energy>
    <i name="e_fr_energy">    -99.88571509 </i>
    <i name="e_wo_entrp">    -99.85861875 </i>
    <i name="e_0_energy">    -99.87668297 </i>
   </energy>
  </scstep>
  <scstep>
   <time name="dav">    3.51    3.54</time>
   <time name="total">    3.98    4.01</time>
   <energy>
    <i name="e_fr_energy">    -99.87745056 </i>
    <i name="e_wo_entrp">    -99.85052775 </i>
    <i name="e_0_energy">    -99.86847629 </i>
   </energy>
  </scstep>
  <scstep>
   <time name="dav">    4.98    5.02</time>
   <time name="total">    5.45    5.50</time>
   <energy>
    <i name="e_fr_energy">    -99.87680561 </i>
    <i name="e_wo_entrp">    -99.85088339 </i>
    <i name="e_0_energy">    -99.86816487 </i>
   </energy>
  </scstep>
  <scstep>
   <time name="dav">    3.87    3.90</time>
   <time name="total">    4.34    4.37</time>
   <energy>
    <i name="e_fr_energy">    -99.87582049 </i>
    <i name="e_wo_entrp">    -99.84958012 </i>
    <i name="e_0_energy">    -99.86707370 </i>
   </energy>
  </scstep>
  <scstep>
   <time name="dav">    3.39    3.42</time>
   <time name="total">    3.46    3.49</time>
   <energy>
    <i name="alphaZ">    911.05318809 </i>
    <i name="ewald"> 167661.46608591 </i>
    <i name="hartreedc">-205490.08826237 </i>
    <i name="XCdc">   1248.28178252 </i>
    <i name="pawpsdc">  36647.69076682 </i>
    <i name="pawaedc"> -39664.56325078 </i>
    <i name="eentropy">     -0.02647546 </i>
    <i name="bandstr">   -360.50342137 </i>
    <i name="atom">  38946.81392559 </i>
    <i name="e_fr_energy">    -99.87566105 </i>
    <i name="e_wo_entrp">    -99.84918559 </i>
    <i name="e_0_energy">    -99.86683590 </i>
   </energy>
  </scstep>
  <dipole>
   <v name="dipole">      0.00000000       0.00000000      -0.00173254 </v>
   <i name="Tr[quadrupol]">  -1509.51404283 </i>
   <i name="Echarged">      0.00000000 </i>
   <i name="Edipol_quadrupol">      0.00000000 </i>
   <i name="Eion">      0.00000000 </i>
  </dipole>
  <structure>
   <crystal>
    <varray name="basis" >
     <v>       5.13359547       0.00000000       0.00000000 </v>
     <v>       2.56679773       4.44582409       0.00000000 </v>
     <v>       0.00000000       0.00000000      27.57468987 </v>
    </varray>
    <i name="volume">    629.33886683 </i>
    <varray name="rec_basis" >
     <v>       0.19479525      -0.11246509       0.00000000 </v>
     <v>       0.00000000       0.22493018       0.00000000 </v>
     <v>       0.00000000       0.00000000       0.03626514 </v>
    </varray>
   </crystal>
   <varray name="positions" >
    <v>       0.00000000       0.00000000       0.00000000 </v>
    <v>       0.00000000       0.50000000       0.00000000 </v>
    <v>       0.50000000       0.00000000       0.00000000 </v>
    <v>       0.50000000       0.50000000       0.00000000 </v>
    <v>       0.16666667       0.16666667       0.07600381 </v>
    <v>       0.16666667       0.66666667       0.07600381 </v>
    <v>       0.66666667       0.16666667       0.07600381 </v>
    <v>       0.66666667       0.66666667       0.07600381 </v>
    <v>       0.33333333       0.33333333       0.15077149 </v>
    <v>       0.33333333       0.83333333       0.15077149 </v>
    <v>       0.83333333       0.33333333       0.15077149 </v>
    <v>       0.83333333       0.83333333       0.15077149 </v>
    <v>       0.00000000      -0.00000000       0.22788338 </v>
    <v>       0.00000000       0.50000000       0.22788338 </v>
    <v>       0.50000000      -0.00000000       0.22788338 </v>
    <v>       0.50000000       0.50000000       0.22788338 </v>
[...]
       <r>    11.8713     0.0401   199.5576 </r>
       <r>    11.9506    -0.1353   199.5469 </r>
       <r>    12.0298    -0.0311   199.5444 </r>
       <r>    12.1090     0.4832   199.5827 </r>
       <r>    12.1882     1.3080   199.6863 </r>
       <r>    12.2675     1.8245   199.8309 </r>
       <r>    12.3467     1.5170   199.9511 </r>
       <r>    12.4259     0.7092   200.0072 </r>
       <r>    12.5052     0.0978   200.0150 </r>
       <r>    12.5844    -0.0916   200.0077 </r>
       <r>    12.6636    -0.0679   200.0024 </r>
       <r>    12.7428    -0.0237   200.0005 </r>
       <r>    12.8221    -0.0052   200.0001 </r>
       <r>    12.9013    -0.0008   200.0000 </r>
       <r>    12.9805    -0.0001   200.0000 </r>
       <r>    13.0597    -0.0000   200.0000 </r>
       <r>    13.1390    -0.0000   200.0000 </r>
       <r>    13.2182    -0.0000   200.0000 </r>
       <r>    13.2974    -0.0000   200.0000 </r>
       <r>    13.3767    -0.0000   200.0000 </r>
       <r>    13.4559    -0.0000   200.0000 </r>
       <r>    13.5351    -0.0000   200.0000 </r>
       <r>    13.6143     0.0000   200.0000 </r>
       <r>    13.6936     0.0000   200.0000 </r>
       <r>    13.7728     0.0000   200.0000 </r>
       <r>    13.8520     0.0000   200.0000 </r>
       <r>    13.9312     0.0000   200.0000 </r>
       <r>    14.0105     0.0000   200.0000 </r>
       <r>    14.0897     0.0000   200.0000 </r>
       <r>    14.1689     0.0000   200.0000 </r>
       <r>    14.2482     0.0000   200.0000 </r>
      </set>
      <set comment="spin 2">
       <r>    -9.5201     0.0000     0.0000 </r>
       <r>    -9.4409     0.0000     0.0000 </r>
       <r>    -9.3616     0.0000     0.0000 </r>
       <r>    -9.2824     0.0000     0.0000 </r>
       <r>    -9.2032     0.0000     0.0000 </r>
       <r>    -9.1240    -0.0000    -0.0000 </r>
       <r>    -9.0447    -0.0000    -0.0000 </r>
       <r>    -8.9655    -0.0000    -0.0000 </r>
       <r>    -8.8863    -0.0000    -0.0000 </r>
       <r>    -8.8070    -0.0000    -0.0000 </r>
       <r>    -8.7278    -0.0000    -0.0000 </r>
       <r>    -8.6486    -0.0000    -0.0000 </r>
       <r>    -8.5694    -0.0000    -0.0000 </r>
       <r>    -8.4901    -0.0000    -0.0000 </r>
       <r>    -8.4109    -0.0000    -0.0000 </r>
       <r>    -8.3317    -0.0000    -0.0000 </r>
       <r>    -8.2525    -0.0000    -0.0000 </r>
       <r>    -8.1732    -0.0000    -0.0000 </r>
       <r>    -8.0940    -0.0002    -0.0000 </r>
       <r>    -8.0148    -0.0016    -0.0001 </r>
       <r>    -7.9355    -0.0068    -0.0007 </r>
       <r>    -7.8563    -0.0185    -0.0022 </r>
       <r>    -7.7771    -0.0218    -0.0039 </r>
       <r>    -7.6979     0.0358    -0.0010 </r>
       <r>    -7.6186     0.2010     0.0149 </r>
       <r>    -7.5394     0.3987     0.0465 </r>
       <r>    -7.4602     0.4490     0.0820 </r>
       <r>    -7.3810     0.2922     0.1052 </r>
       <r>    -7.3017     0.0798     0.1115 </r>
       <r>    -7.2225    -0.0117     0.1106 </r>
       <r>    -7.1433     0.0738     0.1164 </r>
       <r>    -7.0640     0.2541     0.1366 </r>
       <r>    -6.9848     0.3367     0.1632 </r>
       <r>    -6.9056     0.2678     0.1844 </r>
       <r>    -6.8264     0.4342     0.2188 </r>
       <r>    -6.7471     1.2813     0.3204 </r>
       <r>    -6.6679     2.3958     0.5102 </r>
       <r>    -6.5887     2.6423     0.7195 </r>
       <r>    -6.5095     1.6594     0.8510 </r>
       <r>    -6.4302     0.4307     0.8851 </r>
       <r>    -6.3510     0.1293     0.8953 </r>
       <r>    -6.2718     1.0885     0.9816 </r>
       <r>    -6.1925     2.5576     1.1842 </r>
       <r>    -6.1133     3.1581     1.4344 </r>
       <r>    -6.0341     2.3042     1.6170 </r>
       <r>    -5.9549     0.8941     1.6878 </r>
       <r>    -5.8756     0.0169     1.6891 </r>
       <r>    -5.7964    -0.2102     1.6725 </r>
       <r>    -5.7172    -0.2134     1.6556 </r>
       <r>    -5.6379    -0.1582     1.6431 </r>
       <r>    -5.5587     0.2380     1.6619 </r>
       <r>    -5.4795     1.2374     1.7599 </r>
       <r>    -5.4003     2.3626     1.9471 </r>
       <r>    -5.3210     2.6978     2.1609 </r>
       <r>    -5.2418     2.2966     2.3428 </r>
       <r>    -5.1626     2.2128     2.5181 </r>
       <r>    -5.0834     2.6760     2.7302 </r>
       <r>    -5.0041     2.6396     2.9393 </r>
       <r>    -4.9249     1.6000     3.0661 </r>
       <r>    -4.8457     0.5225     3.1074 </r>
       <r>    -4.7664     0.5404     3.1503 </r>
       <r>    -4.6872     1.6846     3.2837 </r>
       <r>    -4.6080     3.2654     3.5424 </r>
       <r>    -4.5288     4.8241     3.9246 </r>
       <r>    -4.4495     5.8114     4.3851 </r>
       <r>    -4.3703     5.2530     4.8012 </r>
       <r>    -4.2911     3.4214     5.0723 </r>
       <r>    -4.2119     2.4068     5.2630 </r>
       <r>    -4.1326     3.3840     5.5311 </r>
       <r>    -4.0534     4.8398     5.9145 </r>
       <r>    -3.9742     4.6098     6.2798 </r>
       <r>    -3.8949     2.6470     6.4895 </r>
       <r>    -3.8157     0.9201     6.5624 </r>
       <r>    -3.7365     1.0944     6.6491 </r>
       <r>    -3.6573     2.9232     6.8807 </r>
       <r>    -3.5780     4.6476     7.2489 </r>
       <r>    -3.4988     4.9424     7.6405 </r>
       <r>    -3.4196     4.4895     7.9962 </r>
       <r>    -3.3404     4.9988     8.3922 </r>
       <r>    -3.2611     7.0261     8.9489 </r>
       <r>    -3.1819     9.6913     9.7167 </r>
       <r>    -3.1027    12.1349    10.6781 </r>
       <r>    -3.0234    14.7778    11.8489 </r>
       <r>    -2.9442    18.4452    13.3103 </r>
       <r>    -2.8650    21.8364    15.0403 </r>
       <r>    -2.7858    22.2093    16.7999 </r>
       <r>    -2.7065    19.3578    18.3336 </r>
       <r>    -2.6273    16.4950    19.6404 </r>
       <r>    -2.5481    16.9390    20.9825 </r>
       <r>    -2.4688    21.2955    22.6697 </r>
       <r>    -2.3896    27.3987    24.8404 </r>
       <r>    -2.3104    32.0136    27.3768 </r>
       <r>    -2.2312    33.1644    30.0043 </r>
       <r>    -2.1519    31.4014    32.4921 </r>
       <r>    -2.0727    28.5536    34.7544 </r>
       <r>    -1.9935    26.0798    36.8206 </r>
       <r>    -1.9143    25.0606    38.8061 </r>
       <r>    -1.8350    26.1147    40.8751 </r>
       <r>    -1.7558    29.3446    43.2000 </r>
       <r>    -1.6766    34.4980    45.9332 </r>
       <r>    -1.5973    39.6663    49.0758 </r>
       <r>    -1.5181    42.2930    52.4266 </r>
       <r>    -1.4389    43.3313    55.8596 </r>
       <r>    -1.3597    46.3184    59.5293 </r>
       <r>    -1.2804    51.5980    63.6173 </r>
       <r>    -1.2012    55.9177    68.0475 </r>
       <r>    -1.1220    56.9137    72.5567 </r>
       <r>    -1.0428    54.4828    76.8732 </r>
       <r>    -0.9635    50.3776    80.8645 </r>
       <r>    -0.8843    47.8585    84.6562 </r>
       <r>    -0.8051    48.4570    88.4953 </r>
       <r>    -0.7258    49.6922    92.4323 </r>
       <r>    -0.6466    48.6990    96.2906 </r>
       <r>    -0.5674    46.1822    99.9495 </r>
       <r>    -0.4882    44.1570   103.4480 </r>
       <r>    -0.4089    43.3722   106.8842 </r>
       <r>    -0.3297    45.3918   110.4805 </r>
       <r>    -0.2505    52.0457   114.6040 </r>
       <r>    -0.1713    61.2452   119.4563 </r>
       <r>    -0.0920    67.8694   124.8334 </r>
       <r>    -0.0128    69.2396   130.3191 </r>
       <r>     0.0664    66.5034   135.5880 </r>
       <r>     0.1457    60.1022   140.3497 </r>
       <r>     0.2249    47.8845   144.1435 </r>
       <r>     0.3041    30.6827   146.5744 </r>
       <r>     0.3833    15.2413   147.7819 </r>
       <r>     0.4626     7.2971   148.3601 </r>
       <r>     0.5418     5.3831   148.7866 </r>
       <r>     0.6210     4.4849   149.1419 </r>
       <r>     0.7003     2.4647   149.3372 </r>
       <r>     0.7795     0.4716   149.3745 </r>
       <r>     0.8587    -0.3430   149.3474 </r>
       <r>     0.9379    -0.0692   149.3419 </r>
       <r>     1.0172     0.8156   149.4065 </r>
       <r>     1.0964     1.9877   149.5640 </r>
       <r>     1.1756     3.3553   149.8298 </r>
       <r>     1.2548     5.1351   150.2366 </r>
       <r>     1.3341     7.3310   150.8175 </r>
       <r>     1.4133     9.0639   151.5356 </r>
       <r>     1.4925     9.5747   152.2941 </r>
       <r>     1.5718     9.4285   153.0411 </r>
       <r>     1.6510     8.9529   153.7505 </r>
       <r>     1.7302     7.3551   154.3332 </r>
       <r>     1.8094     5.1411   154.7405 </r>
       <r>     1.8887     4.3316   155.0837 </r>
       <r>     1.9679     5.0878   155.4868 </r>
       <r>     2.0471     5.1104   155.8917 </r>
       <r>     2.1263     3.2343   156.1479 </r>
       <r>     2.2056     1.1707   156.2407 </r>
       <r>     2.2848     0.9191   156.3135 </r>
       <r>     2.3640     2.3017   156.4958 </r>
       <r>     2.4433     3.7849   156.7957 </r>
       <r>     2.5225     4.9141   157.1850 </r>
       <r>     2.6017     6.5876   157.7070 </r>
       <r>     2.6809     8.4218   158.3742 </r>
       <r>     2.7602     8.2011   159.0240 </r>
       <r>     2.8394     5.3749   159.4498 </r>
       <r>     2.9186     2.4910   159.6471 </r>
       <r>     2.9978     2.0283   159.8078 </r>
       <r>     3.0771     3.9794   160.1231 </r>
       <r>     3.1563     6.4890   160.6372 </r>
       <r>     3.2355     7.3506   161.2196 </r>
       <r>     3.3148     5.6518   161.6674 </r>
       <r>     3.3940     2.6172   161.8747 </r>
       <r>     3.4732     0.2938   161.8980 </r>
       <r>     3.5524    -0.1175   161.8887 </r>
       <r>     3.6317     1.5178   162.0090 </r>
       <r>     3.7109     4.1254   162.3358 </r>
       <r>     3.7901     5.4394   162.7667 </r>
       <r>     3.8694     4.1477   163.0954 </r>
       <r>     3.9486     1.7042   163.2304 </r>
       <r>     4.0278     0.5007   163.2700 </r>
       <r>     4.1070     1.1653   163.3624 </r>
       <r>     4.1863     2.3737   163.5504 </r>
       <r>     4.2655     2.5602   163.7533 </r>
       <r>     4.3447     1.5539   163.8764 </r>
       <r>     4.4239     0.3824   163.9067 </r>
       <r>     4.5032    -0.2408   163.8876 </r>
       <r>     4.5824    -0.3767   163.8578 </r>
       <r>     4.6616    -0.0784   163.8516 </r>
       <r>     4.7409     1.0074   163.9314 </r>
       <r>     4.8201     3.2476   164.1887 </r>
       <r>     4.8993     6.4022   164.6959 </r>
       <r>     4.9785     8.9980   165.4088 </r>
       <r>     5.0578     8.9122   166.1149 </r>
       <r>     5.1370     5.9248   166.5843 </r>
       <r>     5.2162     2.6422   166.7936 </r>
       <r>     5.2954     1.6040   166.9207 </r>
       <r>     5.3747     2.6776   167.1328 </r>
       <r>     5.4539     3.7898   167.4331 </r>
       <r>     5.5331     3.4371   167.7054 </r>
       <r>     5.6124     2.1924   167.8791 </r>
       <r>     5.6916     1.8023   168.0219 </r>
       <r>     5.7708     3.2648   168.2806 </r>
       <r>     5.8500     5.7946   168.7397 </r>
       <r>     5.9293     7.2147   169.3113 </r>
       <r>     6.0085     6.1095   169.7953 </r>
       <r>     6.0877     3.7411   170.0917 </r>
       <r>     6.1670     2.5262   170.2918 </r>
       <r>     6.2462     2.9850   170.5283 </r>
       <r>     6.3254     3.7666   170.8267 </r>
       <r>     6.4046     4.3310   171.1699 </r>
       <r>     6.4839     5.5173   171.6070 </r>
       <r>     6.5631     7.1381   172.1725 </r>
       <r>     6.6423     7.4968   172.7665 </r>
       <r>     6.7215     5.9090   173.2346 </r>
       <r>     6.8008     3.6022   173.5200 </r>
       <r>     6.8800     2.3302   173.7046 </r>
       <r>     6.9592     3.5073   173.9825 </r>
       <r>     7.0385     7.0465   174.5408 </r>
       <r>     7.1177     9.9773   175.3313 </r>
       <r>     7.1969     9.0276   176.0465 </r>
       <r>     7.2761     4.9792   176.4410 </r>
       <r>     7.3554     1.5545   176.5642 </r>
       <r>     7.4346     1.0073   176.6440 </r>
       <r>     7.5138     2.8460   176.8694 </r>
       <r>     7.5930     5.3116   177.2903 </r>
       <r>     7.6723     6.8490   177.8329 </r>
       <r>     7.7515     6.7764   178.3698 </r>
       <r>     7.8307     5.6400   178.8166 </r>
       <r>     7.9100     4.9071   179.2054 </r>
       <r>     7.9892     5.1849   179.6162 </r>
       <r>     8.0684     5.4065   180.0445 </r>
       <r>     8.1476     4.6001   180.4090 </r>
       <r>     8.2269     3.4802   180.6847 </r>
       <r>     8.3061     3.7151   180.9790 </r>
       <r>     8.3853     5.5572   181.4193 </r>
       <r>     8.4645     7.1929   181.9892 </r>
       <r>     8.5438     7.6049   182.5917 </r>
       <r>     8.6230     7.7582   183.2064 </r>
       <r>     8.7022     7.6260   183.8106 </r>
       <r>     8.7815     5.8214   184.2718 </r>
       <r>     8.8607     3.1104   184.5182 </r>
       <r>     8.9399     2.3964   184.7081 </r>
       <r>     9.0191     4.6080   185.0732 </r>
       <r>     9.0984     7.4098   185.6602 </r>
       <r>     9.1776     8.5939   186.3411 </r>
       <r>     9.2568     8.3126   186.9997 </r>
       <r>     9.3361     7.0691   187.5598 </r>
       <r>     9.4153     4.7735   187.9379 </r>
       <r>     9.4945     2.7080   188.1525 </r>
       <r>     9.5737     2.8352   188.3771 </r>
       <r>     9.6530     4.7963   188.7571 </r>
       <r>     9.7322     6.2605   189.2531 </r>
       <r>     9.8114     6.0070   189.7290 </r>
       <r>     9.8906     5.0338   190.1279 </r>
       <r>     9.9699     4.8299   190.5105 </r>
       <r>    10.0491     5.3683   190.9358 </r>
       <r>    10.1283     5.5189   191.3731 </r>
       <r>    10.2076     5.3706   191.7986 </r>
       <r>    10.2868     6.2004   192.2898 </r>
       <r>    10.3660     8.1625   192.9365 </r>
       <r>    10.4452     9.8609   193.7178 </r>
       <r>    10.5245     9.4629   194.4675 </r>
       <r>    10.6037     6.3380   194.9696 </r>
       <r>    10.6829     2.8263   195.1935 </r>
       <r>    10.7621     2.6184   195.4010 </r>
       <r>    10.8414     6.4710   195.9137 </r>
       <r>    10.9206    11.0827   196.7917 </r>
       <r>    10.9998    12.6347   197.7927 </r>
       <r>    11.0791    10.3934   198.6162 </r>
       <r>    11.1583     6.3747   199.1212 </r>
       <r>    11.2375     2.7574   199.3397 </r>
       <r>    11.3167     0.5462   199.3830 </r>
       <r>    11.3960    -0.2517   199.3630 </r>
       <r>    11.4752    -0.1064   199.3546 </r>
       <r>    11.5544     0.4316   199.3888 </r>
       <r>    11.6336     0.8502   199.4562 </r>
       <r>    11.7129     0.8152   199.5208 </r>
       <r>    11.7921     0.4250   199.5544 </r>
       <r>    11.8713     0.0401   199.5576 </r>
       <r>    11.9506    -0.1353   199.5469 </r>
       <r>    12.0298    -0.0311   199.5444 </r>
       <r>    12.1090     0.4832   199.5827 </r>
       <r>    12.1882     1.3080   199.6863 </r>
       <r>    12.2675     1.8245   199.8309 </r>
       <r>    12.3467     1.5170   199.9511 </r>
       <r>    12.4259     0.7092   200.0072 </r>
       <r>    12.5052     0.0978   200.0150 </r>
       <r>    12.5844    -0.0916   200.0077 </r>
       <r>    12.6636    -0.0679   200.0024 </r>
       <r>    12.7428    -0.0237   200.0005 </r>
       <r>    12.8221    -0.0052   200.0001 </r>
       <r>    12.9013    -0.0008   200.0000 </r>
       <r>    12.9805    -0.0001   200.0000 </r>
       <r>    13.0597    -0.0000   200.0000 </r>
       <r>    13.1390    -0.0000   200.0000 </r>
       <r>    13.2182    -0.0000   200.0000 </r>
       <r>    13.2974    -0.0000   200.0000 </r>
       <r>    13.3767    -0.0000   200.0000 </r>
       <r>    13.4559    -0.0000   200.0000 </r>
       <r>    13.5351    -0.0000   200.0000 </r>
       <r>    13.6143     0.0000   200.0000 </r>
       <r>    13.6936     0.0000   200.0000 </r>
       <r>    13.7728     0.0000   200.0000 </r>
       <r>    13.8520     0.0000   200.0000 </r>
       <r>    13.9312     0.0000   200.0000 </r>
       <r>    14.0105     0.0000   200.0000 </r>
       <r>    14.0897     0.0000   200.0000 </r>
       <r>    14.1689     0.0000   200.0000 </r>
       <r>    14.2482     0.0000   200.0000 </r>
      </set>
     </set>
    </array>
   </total>
  </dos>
 </calculation>
 <structure name="finalpos" >
  <crystal>
   <varray name="basis" >
    <v>       5.13359547       0.00000000       0.00000000 </v>
    <v>       2.56679773       4.44582409       0.00000000 </v>
    <v>       0.00000000       0.00000000      27.57468987 </v>
   </varray>
   <i name="volume">    629.33886683 </i>
   <varray name="rec_basis" >
    <v>       0.19479525      -0.11246509       0.00000000 </v>
    <v>       0.00000000       0.22493018       0.00000000 </v>
    <v>       0.00000000       0.00000000       0.03626514 </v>
   </varray>
  </crystal>
  <varray name="positions" >
   <v>       0.00000000       0.00000000       0.00000000 </v>
   <v>       0.00000000       0.50000000       0.00000000 </v>
   <v>       0.50000000       0.00000000       0.00000000 </v>
   <v>       0.50000000       0.50000000       0.00000000 </v>
   <v>       0.16666667       0.16666667       0.07600381 </v>
   <v>       0.16666667       0.66666667       0.07600381 </v>
   <v>       0.66666667       0.16666667       0.07600381 </v>
   <v>       0.66666667       0.66666667       0.07600381 </v>
   <v>       0.33333333       0.33333333       0.14900535 </v>
   <v>       0.33333333       0.83333333       0.14900535 </v>
   <v>       0.83333333       0.33333333       0.14900535 </v>
   <v>       0.83333333       0.83333333       0.14900535 </v>
   <v>      -0.00000000      -0.00000000       0.22263915 </v>
   <v>       0.00000000       0.50000000       0.22263915 </v>
   <v>       0.50000000      -0.00000000       0.22263915 </v>
   <v>       0.50000000       0.50000000       0.22263915 </v>
   <v>       0.16666667       0.16666667       0.29625848 </v>
   <v>       0.16666667       0.66666667       0.29625848 </v>
   <v>       0.66666667       0.16666667       0.29625848 </v>
   <v>       0.66666667       0.66666667       0.29625848 </v>
   <v>       0.33333333       0.33333333       0.36932597 </v>
   <v>       0.33333333       0.83333333       0.36932597 </v>
   <v>       0.83333333       0.33333333       0.36932597 </v>
   <v>       0.83333333       0.83333333       0.36932597 </v>
   <v>       0.00000000      -0.00000000       0.44428210 </v>
   <v>       0.00000000       0.50000000       0.44428210 </v>
   <v>       0.50000000      -0.00000000       0.44428210 </v>
   <v>       0.50000000       0.50000000       0.44428210 </v>
  </varray>
  <varray name="selective"  type="logical" >
   <v type="logical" >  F  F  F </v>
   <v type="logical" >  F  F  F </v>
   <v type="logical" >  F  F  F </v>
   <v type="logical" >  F  F  F </v>
   <v type="logical" >  F  F  F </v>
   <v type="logical" >  F  F  F </v>
   <v type="logical" >  F  F  F </v>
   <v type="logical" >  F  F  F </v>
   <v type="logical" >  T  T  T </v>
   <v type="logical" >  T  T  T </v>
   <v type="logical" >  T  T  T </v>
   <v type="logical" >  T  T  T </v>
   <v type="logical" >  T  T  T </v>
   <v type="logical" >  T  T  T </v>
   <v type="logical" >  T  T  T </v>
   <v type="logical" >  T  T  T </v>
   <v type="logical" >  T  T  T </v>
   <v type="logical" >  T  T  T </v>
   <v type="logical" >  T  T  T </v>
   <v type="logical" >  T  T  T </v>
   <v type="logical" >  T  T  T </v>
   <v type="logical" >  T  T  T </v>
   <v type="logical" >  T  T  T </v>
   <v type="logical" >  T  T  T </v>
   <v type="logical" >  T  T  T </v>
   <v type="logical" >  T  T  T </v>
   <v type="logical" >  T  T  T </v>
   <v type="logical" >  T  T  T </v>
  </varray>
  <nose>
   <v>      -3.00000000       0.00000000       0.00010000       0.00010000 </v>
  </nose>
 </structure>
</modeling>
