   8   8   0   0
  0.2793355E+02  0.3630000E-09  0.2566798E-09  0.2398379E-08  0.5000000E-15
  1.000000000000000E-004
  CAR 
 unknown system                          
     11.33177015    -10.32042220  301      0.52441058      1.00000000
    -10.320  0.0000E+00  0.0000E+00  0.0000E+00  0.0000E+00
    -10.248  0.0000E+00  0.0000E+00  0.0000E+00  0.0000E+00
    -10.176  0.0000E+00  0.0000E+00  0.0000E+00  0.0000E+00
    -10.104  0.0000E+00  0.0000E+00  0.0000E+00  0.0000E+00
    -10.032  0.0000E+00  0.0000E+00  0.0000E+00  0.0000E+00
     -9.960 -0.3001E-31 -0.3001E-31 -0.2166E-32 -0.2166E-32
     -9.887 -0.9304E-29 -0.9303E-29 -0.6737E-30 -0.6736E-30
     -9.815 -0.2223E-26 -0.2223E-26 -0.1611E-27 -0.1611E-27
     -9.743 -0.4084E-24 -0.4084E-24 -0.2964E-25 -0.2963E-25
     -9.671 -0.5765E-22 -0.5764E-22 -0.4190E-23 -0.4190E-23
     -9.599 -0.6250E-20 -0.6250E-20 -0.4553E-21 -0.4552E-21
     -9.527 -0.5202E-18 -0.5202E-18 -0.3800E-19 -0.3800E-19
     -9.454 -0.3216E-16 -0.3216E-16 -0.2359E-17 -0.2359E-17
     -9.382 -0.1570E-14 -0.1570E-14 -0.1157E-15 -0.1157E-15
     -9.310 -0.5857E-13 -0.5857E-13 -0.4343E-14 -0.4343E-14
     -9.238 -0.1669E-11 -0.1669E-11 -0.1248E-12 -0.1248E-12
     -9.166 -0.3628E-10 -0.3628E-10 -0.2743E-11 -0.2743E-11
     -9.093 -0.5994E-09 -0.5994E-09 -0.4600E-10 -0.4600E-10
     -9.021 -0.7500E-08 -0.7500E-08 -0.5873E-09 -0.5873E-09
     -8.949 -0.7065E-07 -0.7065E-07 -0.5687E-08 -0.5686E-08
     -8.877 -0.4965E-06 -0.4965E-06 -0.4152E-07 -0.4152E-07
     -8.805 -0.2563E-05 -0.2563E-05 -0.2265E-06 -0.2265E-06
     -8.733 -0.9437E-05 -0.9437E-05 -0.9076E-06 -0.9076E-06
     -8.660 -0.2312E-04 -0.2312E-04 -0.2576E-05 -0.2576E-05
     -8.588 -0.2924E-04 -0.2924E-04 -0.4686E-05 -0.4686E-05
     -8.516  0.2121E-04  0.2121E-04 -0.3156E-05 -0.3156E-05
     -8.444  0.1829E-03  0.1829E-03  0.1005E-04  0.1005E-04
     -8.372  0.4201E-03  0.4201E-03  0.4037E-04  0.4037E-04
     -8.300  0.5718E-03  0.5718E-03  0.8164E-04  0.8164E-04
     -8.227  0.5054E-03  0.5054E-03  0.1181E-03  0.1181E-03
     -8.155  0.2810E-03  0.2810E-03  0.1384E-03  0.1384E-03
     -8.083  0.7467E-04  0.7467E-04  0.1438E-03  0.1438E-03
     -8.011 -0.1877E-04 -0.1877E-04  0.1424E-03  0.1424E-03
     -7.939 -0.2868E-04 -0.2868E-04  0.1404E-03  0.1404E-03
     -7.867 -0.1512E-04 -0.1512E-04  0.1393E-03  0.1393E-03
     -7.794 -0.7418E-05 -0.7418E-05  0.1387E-03  0.1387E-03
     -7.722 -0.1108E-04 -0.1108E-04  0.1379E-03  0.1379E-03
     -7.650 -0.2433E-04 -0.2433E-04  0.1362E-03  0.1362E-03
     -7.578 -0.3016E-04 -0.3016E-04  0.1340E-03  0.1340E-03
     -7.506  0.1932E-04  0.1932E-04  0.1354E-03  0.1354E-03
     -7.433  0.1698E-03  0.1698E-03  0.1476E-03  0.1476E-03
     -7.361  0.3785E-03  0.3785E-03  0.1750E-03  0.1750E-03
     -7.289  0.5262E-03  0.5262E-03  0.2129E-03  0.2129E-03
     -7.217  0.6014E-03  0.6014E-03  0.2563E-03  0.2563E-03
     -7.145  0.7566E-03  0.7566E-03  0.3110E-03  0.3110E-03
     -7.073  0.1021E-02  0.1021E-02  0.3847E-03  0.3847E-03
     -7.000  0.1133E-02  0.1133E-02  0.4664E-03  0.4664E-03
     -6.928  0.8789E-03  0.8789E-03  0.5299E-03  0.5298E-03
     -6.856  0.4202E-03  0.4202E-03  0.5602E-03  0.5602E-03
     -6.784  0.7153E-04  0.7154E-04  0.5653E-03  0.5653E-03
     -6.712 -0.5516E-04 -0.5516E-04  0.5614E-03  0.5614E-03
     -6.640 -0.5364E-04 -0.5364E-04  0.5575E-03  0.5575E-03
     -6.567 -0.3434E-04 -0.3434E-04  0.5550E-03  0.5550E-03
     -6.495 -0.4152E-04 -0.4151E-04  0.5520E-03  0.5520E-03
     -6.423 -0.6345E-04 -0.6345E-04  0.5474E-03  0.5474E-03
     -6.351 -0.2715E-04 -0.2715E-04  0.5455E-03  0.5455E-03
     -6.279  0.1831E-03  0.1831E-03  0.5587E-03  0.5587E-03
     -6.207  0.5860E-03  0.5860E-03  0.6010E-03  0.6010E-03
     -6.134  0.9925E-03  0.9925E-03  0.6726E-03  0.6726E-03
     -6.062  0.1219E-02  0.1219E-02  0.7606E-03  0.7606E-03
     -5.990  0.1372E-02  0.1372E-02  0.8597E-03  0.8597E-03
     -5.918  0.1610E-02  0.1610E-02  0.9758E-03  0.9758E-03
     -5.846  0.1721E-02  0.1721E-02  0.1100E-02  0.1100E-02
     -5.773  0.1388E-02  0.1388E-02  0.1200E-02  0.1200E-02
     -5.701  0.7258E-03  0.7258E-03  0.1253E-02  0.1253E-02
     -5.629  0.1654E-03  0.1654E-03  0.1265E-02  0.1265E-02
     -5.557 -0.8163E-04 -0.8163E-04  0.1259E-02  0.1259E-02
     -5.485 -0.1347E-03 -0.1347E-03  0.1249E-02  0.1249E-02
     -5.413 -0.1751E-03 -0.1751E-03  0.1236E-02  0.1236E-02
     -5.340 -0.2128E-03 -0.2128E-03  0.1221E-02  0.1221E-02
     -5.268  0.1274E-04  0.1274E-04  0.1222E-02  0.1222E-02
     -5.196  0.9082E-03  0.9082E-03  0.1287E-02  0.1287E-02
     -5.124  0.2505E-02  0.2504E-02  0.1468E-02  0.1468E-02
     -5.052  0.3992E-02  0.3992E-02  0.1756E-02  0.1756E-02
     -4.980  0.4243E-02  0.4243E-02  0.2063E-02  0.2063E-02
     -4.907  0.3041E-02  0.3041E-02  0.2282E-02  0.2282E-02
     -4.835  0.1333E-02  0.1333E-02  0.2378E-02  0.2378E-02
     -4.763  0.1365E-03  0.1365E-03  0.2388E-02  0.2388E-02
     -4.691 -0.3501E-03 -0.3501E-03  0.2363E-02  0.2363E-02
     -4.619 -0.4209E-03 -0.4209E-03  0.2332E-02  0.2332E-02
     -4.547 -0.1081E-03 -0.1081E-03  0.2325E-02  0.2325E-02
     -4.474  0.9725E-03  0.9724E-03  0.2395E-02  0.2395E-02
     -4.402  0.2944E-02  0.2944E-02  0.2607E-02  0.2607E-02
     -4.330  0.4939E-02  0.4939E-02  0.2964E-02  0.2964E-02
     -4.258  0.5567E-02  0.5567E-02  0.3366E-02  0.3366E-02
     -4.186  0.4427E-02  0.4427E-02  0.3685E-02  0.3685E-02
     -4.113  0.2674E-02  0.2674E-02  0.3878E-02  0.3878E-02
     -4.041  0.1739E-02  0.1739E-02  0.4004E-02  0.4004E-02
     -3.969  0.1945E-02  0.1945E-02  0.4144E-02  0.4144E-02
     -3.897  0.2694E-02  0.2694E-02  0.4338E-02  0.4338E-02
     -3.825  0.3547E-02  0.3547E-02  0.4594E-02  0.4594E-02
     -3.753  0.4590E-02  0.4590E-02  0.4926E-02  0.4926E-02
     -3.680  0.5906E-02  0.5906E-02  0.5352E-02  0.5352E-02
     -3.608  0.7193E-02  0.7193E-02  0.5871E-02  0.5871E-02
     -3.536  0.8139E-02  0.8139E-02  0.6459E-02  0.6459E-02
     -3.464  0.8813E-02  0.8813E-02  0.7095E-02  0.7095E-02
     -3.392  0.9376E-02  0.9376E-02  0.7771E-02  0.7771E-02
     -3.320  0.9922E-02  0.9922E-02  0.8487E-02  0.8487E-02
     -3.247  0.1069E-01  0.1069E-01  0.9259E-02  0.9259E-02
     -3.175  0.1156E-01  0.1156E-01  0.1009E-01  0.1009E-01
     -3.103  0.1156E-01  0.1156E-01  0.1093E-01  0.1093E-01
     -3.031  0.1003E-01  0.1003E-01  0.1165E-01  0.1165E-01
     -2.959  0.8028E-02  0.8028E-02  0.1223E-01  0.1223E-01
     -2.887  0.7480E-02  0.7480E-02  0.1277E-01  0.1277E-01
     -2.814  0.8842E-02  0.8842E-02  0.1341E-01  0.1341E-01
     -2.742  0.1073E-01  0.1073E-01  0.1418E-01  0.1418E-01
     -2.670  0.1198E-01  0.1198E-01  0.1505E-01  0.1505E-01
     -2.598  0.1287E-01  0.1287E-01  0.1598E-01  0.1598E-01
     -2.526  0.1391E-01  0.1391E-01  0.1698E-01  0.1698E-01
     -2.453  0.1462E-01  0.1462E-01  0.1804E-01  0.1804E-01
     -2.381  0.1474E-01  0.1474E-01  0.1910E-01  0.1910E-01
     -2.309  0.1531E-01  0.1531E-01  0.2021E-01  0.2021E-01
     -2.237  0.1725E-01  0.1725E-01  0.2145E-01  0.2145E-01
     -2.165  0.1952E-01  0.1952E-01  0.2286E-01  0.2286E-01
     -2.093  0.2025E-01  0.2025E-01  0.2432E-01  0.2432E-01
     -2.020  0.1915E-01  0.1915E-01  0.2570E-01  0.2570E-01
     -1.948  0.1764E-01  0.1764E-01  0.2698E-01  0.2698E-01
     -1.876  0.1674E-01  0.1674E-01  0.2818E-01  0.2818E-01
     -1.804  0.1595E-01  0.1595E-01  0.2934E-01  0.2934E-01
     -1.732  0.1422E-01  0.1422E-01  0.3036E-01  0.3036E-01
     -1.660  0.1182E-01  0.1182E-01  0.3121E-01  0.3121E-01
     -1.587  0.1049E-01  0.1049E-01  0.3197E-01  0.3197E-01
     -1.515  0.1179E-01  0.1179E-01  0.3282E-01  0.3282E-01
     -1.443  0.1576E-01  0.1576E-01  0.3396E-01  0.3396E-01
     -1.371  0.2101E-01  0.2101E-01  0.3548E-01  0.3548E-01
     -1.299  0.2510E-01  0.2510E-01  0.3729E-01  0.3729E-01
     -1.227  0.2586E-01  0.2586E-01  0.3915E-01  0.3915E-01
     -1.154  0.2361E-01  0.2361E-01  0.4086E-01  0.4086E-01
     -1.082  0.2125E-01  0.2125E-01  0.4239E-01  0.4239E-01
     -1.010  0.2091E-01  0.2091E-01  0.4390E-01  0.4390E-01
     -0.938  0.2193E-01  0.2193E-01  0.4548E-01  0.4548E-01
     -0.866  0.2259E-01  0.2259E-01  0.4711E-01  0.4711E-01
     -0.793  0.2229E-01  0.2229E-01  0.4872E-01  0.4872E-01
     -0.721  0.2097E-01  0.2097E-01  0.5024E-01  0.5024E-01
     -0.649  0.1819E-01  0.1819E-01  0.5155E-01  0.5155E-01
     -0.577  0.1390E-01  0.1390E-01  0.5255E-01  0.5255E-01
     -0.505  0.9137E-02  0.9137E-02  0.5321E-01  0.5321E-01
     -0.433  0.5279E-02  0.5279E-02  0.5359E-01  0.5359E-01
     -0.360  0.2811E-02  0.2811E-02  0.5380E-01  0.5380E-01
     -0.288  0.1328E-02  0.1328E-02  0.5389E-01  0.5389E-01
     -0.216  0.3828E-03  0.3828E-03  0.5392E-01  0.5392E-01
     -0.144 -0.1438E-03 -0.1438E-03  0.5391E-01  0.5391E-01
     -0.072 -0.3115E-03 -0.3115E-03  0.5389E-01  0.5389E-01
      0.000 -0.1889E-03 -0.1889E-03  0.5387E-01  0.5387E-01
      0.073  0.2897E-03  0.2897E-03  0.5389E-01  0.5389E-01
      0.145  0.1151E-02  0.1151E-02  0.5398E-01  0.5398E-01
      0.217  0.2092E-02  0.2092E-02  0.5413E-01  0.5413E-01
      0.289  0.2720E-02  0.2720E-02  0.5432E-01  0.5432E-01
      0.361  0.3011E-02  0.3011E-02  0.5454E-01  0.5454E-01
      0.434  0.3074E-02  0.3074E-02  0.5476E-01  0.5476E-01
      0.506  0.2710E-02  0.2710E-02  0.5496E-01  0.5496E-01
      0.578  0.1831E-02  0.1831E-02  0.5509E-01  0.5509E-01
      0.650  0.9594E-03  0.9594E-03  0.5516E-01  0.5516E-01
      0.722  0.6842E-03  0.6842E-03  0.5521E-01  0.5521E-01
      0.794  0.8949E-03  0.8949E-03  0.5527E-01  0.5527E-01
      0.867  0.9955E-03  0.9955E-03  0.5535E-01  0.5535E-01
      0.939  0.6911E-03  0.6911E-03  0.5540E-01  0.5540E-01
      1.011  0.2453E-03  0.2453E-03  0.5541E-01  0.5541E-01
      1.083  0.6836E-04  0.6835E-04  0.5542E-01  0.5542E-01
      1.155  0.3029E-03  0.3029E-03  0.5544E-01  0.5544E-01
      1.227  0.7780E-03  0.7780E-03  0.5550E-01  0.5550E-01
      1.300  0.1267E-02  0.1267E-02  0.5559E-01  0.5559E-01
      1.372  0.1747E-02  0.1747E-02  0.5571E-01  0.5571E-01
      1.444  0.2209E-02  0.2209E-02  0.5587E-01  0.5587E-01
      1.516  0.2320E-02  0.2320E-02  0.5604E-01  0.5604E-01
      1.588  0.1765E-02  0.1765E-02  0.5617E-01  0.5617E-01
      1.660  0.9188E-03  0.9188E-03  0.5623E-01  0.5623E-01
      1.733  0.6129E-03  0.6129E-03  0.5628E-01  0.5628E-01
      1.805  0.1181E-02  0.1181E-02  0.5636E-01  0.5636E-01
      1.877  0.2093E-02  0.2093E-02  0.5652E-01  0.5652E-01
      1.949  0.2612E-02  0.2612E-02  0.5670E-01  0.5670E-01
      2.021  0.2545E-02  0.2545E-02  0.5689E-01  0.5689E-01
      2.094  0.2103E-02  0.2103E-02  0.5704E-01  0.5704E-01
      2.166  0.1440E-02  0.1440E-02  0.5714E-01  0.5714E-01
      2.238  0.7666E-03  0.7666E-03  0.5720E-01  0.5720E-01
      2.310  0.5531E-03  0.5531E-03  0.5724E-01  0.5724E-01
      2.382  0.1091E-02  0.1091E-02  0.5732E-01  0.5732E-01
      2.454  0.1994E-02  0.1994E-02  0.5746E-01  0.5746E-01
      2.527  0.2538E-02  0.2538E-02  0.5764E-01  0.5764E-01
      2.599  0.2473E-02  0.2473E-02  0.5782E-01  0.5782E-01
      2.671  0.2172E-02  0.2172E-02  0.5798E-01  0.5798E-01
      2.743  0.2004E-02  0.2004E-02  0.5812E-01  0.5812E-01
      2.815  0.1912E-02  0.1912E-02  0.5826E-01  0.5826E-01
      2.887  0.1614E-02  0.1614E-02  0.5838E-01  0.5838E-01
      2.960  0.1034E-02  0.1034E-02  0.5845E-01  0.5845E-01
      3.032  0.4148E-03  0.4148E-03  0.5848E-01  0.5848E-01
      3.104  0.3043E-04  0.3044E-04  0.5849E-01  0.5849E-01
      3.176 -0.8585E-04 -0.8585E-04  0.5848E-01  0.5848E-01
      3.248 -0.7699E-04 -0.7699E-04  0.5847E-01  0.5847E-01
      3.320 -0.7383E-04 -0.7383E-04  0.5847E-01  0.5847E-01
      3.393 -0.1170E-03 -0.1170E-03  0.5846E-01  0.5846E-01
      3.465 -0.1333E-03 -0.1333E-03  0.5845E-01  0.5845E-01
      3.537  0.8107E-04  0.8109E-04  0.5846E-01  0.5846E-01
      3.609  0.7180E-03  0.7180E-03  0.5851E-01  0.5851E-01
      3.681  0.1689E-02  0.1689E-02  0.5863E-01  0.5863E-01
      3.754  0.2689E-02  0.2689E-02  0.5882E-01  0.5882E-01
      3.826  0.3562E-02  0.3562E-02  0.5908E-01  0.5908E-01
      3.898  0.4204E-02  0.4204E-02  0.5938E-01  0.5938E-01
      3.970  0.4231E-02  0.4231E-02  0.5969E-01  0.5969E-01
      4.042  0.3437E-02  0.3437E-02  0.5994E-01  0.5994E-01
      4.114  0.2330E-02  0.2330E-02  0.6011E-01  0.6011E-01
      4.187  0.1552E-02  0.1552E-02  0.6022E-01  0.6022E-01
      4.259  0.1163E-02  0.1163E-02  0.6030E-01  0.6030E-01
      4.331  0.8642E-03  0.8642E-03  0.6036E-01  0.6036E-01
      4.403  0.5053E-03  0.5053E-03  0.6040E-01  0.6040E-01
      4.475  0.1690E-03  0.1690E-03  0.6041E-01  0.6041E-01
      4.547  0.3724E-04  0.3725E-04  0.6042E-01  0.6042E-01
      4.620  0.2411E-03  0.2412E-03  0.6043E-01  0.6043E-01
      4.692  0.6943E-03  0.6943E-03  0.6048E-01  0.6048E-01
      4.764  0.1058E-02  0.1058E-02  0.6056E-01  0.6056E-01
      4.836  0.1050E-02  0.1050E-02  0.6064E-01  0.6064E-01
      4.908  0.7923E-03  0.7916E-03  0.6069E-01  0.6069E-01
      4.980  0.6403E-03  0.6384E-03  0.6074E-01  0.6074E-01
      5.053  0.6923E-03  0.6897E-03  0.6079E-01  0.6079E-01
      5.125  0.7395E-03  0.7379E-03  0.6084E-01  0.6084E-01
      5.197  0.7334E-03  0.7342E-03  0.6090E-01  0.6089E-01
      5.269  0.1061E-02  0.1063E-02  0.6097E-01  0.6097E-01
      5.341  0.2128E-02  0.2130E-02  0.6113E-01  0.6113E-01
      5.414  0.3660E-02  0.3660E-02  0.6139E-01  0.6139E-01
      5.486  0.4666E-02  0.4665E-02  0.6173E-01  0.6173E-01
      5.558  0.4330E-02  0.4329E-02  0.6204E-01  0.6204E-01
      5.630  0.2927E-02  0.2928E-02  0.6225E-01  0.6225E-01
      5.702  0.1718E-02  0.1718E-02  0.6237E-01  0.6237E-01
      5.774  0.1739E-02  0.1739E-02  0.6250E-01  0.6250E-01
      5.847  0.2673E-02  0.2673E-02  0.6269E-01  0.6269E-01
      5.919  0.3180E-02  0.3180E-02  0.6292E-01  0.6292E-01
      5.991  0.2486E-02  0.2486E-02  0.6310E-01  0.6310E-01
      6.063  0.1224E-02  0.1225E-02  0.6319E-01  0.6319E-01
      6.135  0.5246E-03  0.5251E-03  0.6323E-01  0.6323E-01
      6.207  0.7742E-03  0.7743E-03  0.6328E-01  0.6328E-01
      6.280  0.1565E-02  0.1565E-02  0.6340E-01  0.6340E-01
      6.352  0.2462E-02  0.2460E-02  0.6357E-01  0.6357E-01
      6.424  0.3403E-02  0.3398E-02  0.6382E-01  0.6382E-01
      6.496  0.4347E-02  0.4343E-02  0.6413E-01  0.6413E-01
      6.568  0.4872E-02  0.4871E-02  0.6449E-01  0.6448E-01
      6.640  0.4481E-02  0.4484E-02  0.6481E-01  0.6481E-01
      6.713  0.3331E-02  0.3335E-02  0.6505E-01  0.6505E-01
      6.785  0.2233E-02  0.2236E-02  0.6521E-01  0.6521E-01
      6.857  0.1726E-02  0.1726E-02  0.6533E-01  0.6533E-01
      6.929  0.1518E-02  0.1518E-02  0.6544E-01  0.6544E-01
      7.001  0.1113E-02  0.1114E-02  0.6552E-01  0.6552E-01
      7.074  0.5092E-03  0.5104E-03  0.6556E-01  0.6556E-01
      7.146  0.1996E-04  0.2100E-04  0.6556E-01  0.6556E-01
      7.218 -0.2120E-03 -0.2116E-03  0.6555E-01  0.6555E-01
      7.290 -0.2089E-03 -0.2093E-03  0.6553E-01  0.6553E-01
      7.362  0.1179E-03  0.1160E-03  0.6554E-01  0.6554E-01
      7.434  0.9651E-03  0.9612E-03  0.6561E-01  0.6561E-01
      7.507  0.2303E-02  0.2298E-02  0.6578E-01  0.6578E-01
      7.579  0.3687E-02  0.3685E-02  0.6604E-01  0.6604E-01
      7.651  0.4661E-02  0.4661E-02  0.6638E-01  0.6638E-01
      7.723  0.5279E-02  0.5282E-02  0.6676E-01  0.6676E-01
      7.795  0.5826E-02  0.5829E-02  0.6718E-01  0.6718E-01
      7.867  0.6089E-02  0.6091E-02  0.6762E-01  0.6762E-01
      7.940  0.5491E-02  0.5493E-02  0.6802E-01  0.6802E-01
      8.012  0.3942E-02  0.3943E-02  0.6830E-01  0.6830E-01
      8.084  0.2141E-02  0.2141E-02  0.6846E-01  0.6846E-01
      8.156  0.9855E-03  0.9833E-03  0.6853E-01  0.6853E-01
      8.228  0.7690E-03  0.7666E-03  0.6858E-01  0.6858E-01
      8.300  0.1026E-02  0.1026E-02  0.6866E-01  0.6866E-01
      8.373  0.1147E-02  0.1149E-02  0.6874E-01  0.6874E-01
      8.445  0.9270E-03  0.9300E-03  0.6881E-01  0.6881E-01
      8.517  0.5185E-03  0.5204E-03  0.6884E-01  0.6884E-01
      8.589  0.2468E-03  0.2459E-03  0.6886E-01  0.6886E-01
      8.661  0.5469E-03  0.5414E-03  0.6890E-01  0.6890E-01
      8.734  0.1618E-02  0.1608E-02  0.6902E-01  0.6902E-01
      8.806  0.2902E-02  0.2889E-02  0.6923E-01  0.6922E-01
      8.878  0.3341E-02  0.3326E-02  0.6947E-01  0.6946E-01
      8.950  0.2510E-02  0.2493E-02  0.6965E-01  0.6964E-01
      9.022  0.1113E-02  0.1130E-02  0.6973E-01  0.6973E-01
      9.094  0.1464E-03  0.2904E-03  0.6974E-01  0.6975E-01
      9.167 -0.8038E-05  0.3262E-03  0.6974E-01  0.6977E-01
      9.239  0.4210E-03  0.8082E-03  0.6977E-01  0.6983E-01
      9.311  0.9495E-03  0.1092E-02  0.6984E-01  0.6991E-01
      9.383  0.1126E-02  0.8945E-03  0.6992E-01  0.6997E-01
      9.455  0.8366E-03  0.4363E-03  0.6998E-01  0.7000E-01
      9.527  0.3653E-03  0.7842E-04  0.7001E-01  0.7001E-01
      9.600  0.4235E-04 -0.5326E-04  0.7001E-01  0.7001E-01
      9.672 -0.5848E-04 -0.5098E-04  0.7001E-01  0.7000E-01
      9.744 -0.4623E-04 -0.2257E-04  0.7000E-01  0.7000E-01
      9.816 -0.1887E-04 -0.6513E-05  0.7000E-01  0.7000E-01
      9.888 -0.5127E-05 -0.1330E-05  0.7000E-01  0.7000E-01
      9.960 -0.9931E-06 -0.1989E-06  0.7000E-01  0.7000E-01
     10.033 -0.1413E-06 -0.2215E-07  0.7000E-01  0.7000E-01
     10.105 -0.1500E-07 -0.1854E-08  0.7000E-01  0.7000E-01
     10.177 -0.1199E-08 -0.1174E-09  0.7000E-01  0.7000E-01
     10.249 -0.7255E-10 -0.5652E-11  0.7000E-01  0.7000E-01
     10.321 -0.3339E-11 -0.2073E-12  0.7000E-01  0.7000E-01
     10.394 -0.1171E-12 -0.5809E-14  0.7000E-01  0.7000E-01
     10.466 -0.3141E-14 -0.1248E-15  0.7000E-01  0.7000E-01
     10.538 -0.6409E-16 -0.1709E-17  0.7000E-01  0.7000E-01
     10.610 -0.8546E-18  0.0000E+00  0.7000E-01  0.7000E-01
     10.682  0.0000E+00  0.0000E+00  0.7000E-01  0.7000E-01
     10.754  0.0000E+00  0.0000E+00  0.7000E-01  0.7000E-01
     10.827  0.0000E+00  0.0000E+00  0.7000E-01  0.7000E-01
     10.899  0.0000E+00  0.0000E+00  0.7000E-01  0.7000E-01
     10.971  0.0000E+00  0.0000E+00  0.7000E-01  0.7000E-01
     11.043  0.0000E+00  0.0000E+00  0.7000E-01  0.7000E-01
     11.115  0.0000E+00  0.0000E+00  0.7000E-01  0.7000E-01
     11.187  0.0000E+00  0.0000E+00  0.7000E-01  0.7000E-01
     11.260  0.0000E+00  0.0000E+00  0.7000E-01  0.7000E-01
     11.332  0.0000E+00  0.0000E+00  0.7000E-01  0.7000E-01
