<?xml version="1.0" encoding="ISO-8859-1"?>
<modeling>
 <generator>
  <i name="program" type="string">vasp </i>
  <i name="version" type="string">6.3.2  </i>
  <i name="subversion" type="string">27Jun22 (build Aug 17 2022 15:43:34) complex                          parallel </i>
  <i name="platform" type="string">tv2STDVTST </i>
  <i name="date" type="string">2025 01 21 </i>
  <i name="time" type="string">16:01:48 </i>
 </generator>
 <incar>
  <i type="int" name="ISTART">     0</i>
  <i type="string" name="PREC">Normal</i>
  <i type="int" name="ISPIN">     2</i>
  <i type="int" name="ICHARG">     2</i>
  <i type="int" name="IBRION">     2</i>
  <i name="EDIFF">      0.00020000</i>
  <i name="EDIFFG">     -0.03000000</i>
  <i type="int" name="NSW">   800</i>
  <i type="int" name="ISIF">     2</i>
  <i type="int" name="ISYM">     1</i>
  <i name="ENCUT">    400.00000000</i>
  <i name="POTIM">      0.50000000</i>
  <i type="logical" name="LREAL"> F  </i>
  <i type="int" name="ISMEAR">     1</i>
  <i name="SIGMA">      0.20000000</i>
  <i type="logical" name="LWAVE"> F  </i>
  <i type="logical" name="LCHARG"> F  </i>
  <i type="string" name="GGA">PE</i>
  <i type="int" name="IDIPOL">     3</i>
  <i type="int" name="IVDW">    11</i>
 </incar>
 <primitive_cell>
  <structure name="primitive_cell" >
   <crystal>
    <varray name="basis" >
     <v>       3.63000011       0.00000000       0.00000000 </v>
     <v>       0.00000000       2.56679773       0.00000000 </v>
     <v>       0.00000000       0.00000000      23.98379207 </v>
    </varray>
    <i name="volume">    223.46840857 </i>
    <varray name="rec_basis" >
     <v>       0.27548208       0.00000000       0.00000000 </v>
     <v>       0.00000000       0.38959050       0.00000000 </v>
     <v>       0.00000000       0.00000000       0.04169482 </v>
    </varray>
   </crystal>
   <varray name="positions" >
    <v>       0.00000000       0.00000000       0.00000000 </v>
    <v>       0.50000000       0.50000000       0.05351109 </v>
    <v>       0.00000000       0.00000000       0.10702218 </v>
    <v>       0.50000000       0.50000000       0.16053327 </v>
    <v>       0.00000000       0.00000000       0.21404436 </v>
    <v>       0.50000000       0.50000000       0.26755545 </v>
    <v>       0.00000000       0.00000000       0.32106654 </v>
    <v>       0.50000000       0.50000000       0.37457763 </v>
   </varray>
  </structure>
  <varray name="primitive_index" >
   <v type="int" >        1 </v>
   <v type="int" >        2 </v>
   <v type="int" >        3 </v>
   <v type="int" >        4 </v>
   <v type="int" >        5 </v>
   <v type="int" >        6 </v>
   <v type="int" >        7 </v>
   <v type="int" >        8 </v>
  </varray>
 </primitive_cell>
 <kpoints>
  <generation param="Monkhorst-Pack">
   <v type="int" name="divisions">       3        3        1 </v>
   <v name="usershift">      0.00000000       0.00000000       0.00000000 </v>
   <v name="genvec1">      0.33333333       0.00000000       0.00000000 </v>
   <v name="genvec2">      0.00000000       0.33333333       0.00000000 </v>
   <v name="genvec3">      0.00000000       0.00000000       1.00000000 </v>
   <v name="shift">      0.00000000       0.00000000       0.00000000 </v>
  </generation>
  <varray name="kpointlist" >
   <v>       0.00000000       0.00000000       0.00000000 </v>
   <v>       0.33333333       0.00000000       0.00000000 </v>
   <v>       0.00000000       0.33333333       0.00000000 </v>
   <v>       0.33333333       0.33333333       0.00000000 </v>
  </varray>
  <varray name="weights" >
   <v>       0.11111111 </v>
   <v>       0.22222222 </v>
   <v>       0.22222222 </v>
   <v>       0.44444444 </v>
  </varray>
 </kpoints>
 <parameters>
  <separator name="general" >
   <i type="string" name="SYSTEM">unknown system</i>
   <i type="logical" name="LCOMPAT"> F  </i>
  </separator>
  <separator name="electronic" >
   <i type="string" name="PREC">normal</i>
   <i name="ENMAX">    400.00000000</i>
   <i name="ENAUG">    586.98000000</i>
   <i name="EDIFF">      0.00020000</i>
   <i type="int" name="IALGO">    38</i>
   <i type="int" name="IWAVPR">    11</i>
   <i type="int" name="NBANDS">    56</i>
   <i type="int" name="NBANDSLOW">    -1</i>
   <i type="int" name="NBANDSHIGH">    -1</i>
   <i name="NELECT">     88.00000000</i>
   <i type="int" name="TURBO">     0</i>
   <i type="int" name="IRESTART">     0</i>
   <i type="int" name="NREBOOT">     0</i>
   <i type="int" name="NMIN">     0</i>
   <i name="EREF">      0.00000000</i>
   <separator name="electronic smearing" >
    <i type="int" name="ISMEAR">     1</i>
    <i name="SIGMA">      0.20000000</i>
    <i name="KSPACING">      0.50000000</i>
    <i type="logical" name="KGAMMA"> T  </i>
    <i type="logical" name="KBLOWUP"> T  </i>
   </separator>
   <separator name="electronic projectors" >
    <i type="logical" name="LREAL"> F  </i>
    <v name="ROPT">      0.00000000</v>
    <i type="int" name="LMAXPAW">  -100</i>
    <i type="int" name="LMAXMIX">     2</i>
    <i type="logical" name="NLSPLINE"> F  </i>
   </separator>
   <separator name="electronic startup" >
    <i type="int" name="ISTART">     0</i>
    <i type="int" name="ICHARG">     2</i>
    <i type="int" name="INIWAV">     1</i>
   </separator>
   <separator name="electronic spin" >
    <i type="int" name="ISPIN">     2</i>
    <i type="logical" name="LNONCOLLINEAR"> F  </i>
    <v name="MAGMOM">      1.00000000      1.00000000      1.00000000      1.00000000      1.00000000      1.00000000      1.00000000      1.00000000</v>
    <i name="NUPDOWN">     -1.00000000</i>
    <i type="logical" name="LSORBIT"> F  </i>
    <v name="SAXIS">      0.00000000      0.00000000      1.00000000</v>
    <i type="logical" name="LSPIRAL"> F  </i>
    <v name="QSPIRAL">      0.00000000      0.00000000      0.00000000</v>
    <i type="logical" name="LZEROZ"> F  </i>
   </separator>
   <separator name="electronic exchange-correlation" >
    <i type="logical" name="LASPH"> F  </i>
    <i type="logical" name="LMETAGGA"> F  </i>
   </separator>
   <separator name="electronic convergence" >
    <i type="int" name="NELM">    60</i>
    <i type="int" name="NELMDL">    -5</i>
    <i type="int" name="NELMIN">     2</i>
    <i name="ENINI">    400.00000000</i>
    <separator name="electronic convergence detail" >
     <i type="logical" name="LDIAG"> T  </i>
     <i type="logical" name="LSUBROT"> F  </i>
     <i name="WEIMIN">      0.00100000</i>
     <i name="EBREAK">      0.00000089</i>
     <i name="DEPER">      0.30000000</i>
     <i type="int" name="NRMM">     4</i>
     <i name="TIME">      0.40000000</i>
    </separator>
   </separator>
   <separator name="electronic mixer" >
    <i name="AMIX">      0.40000000</i>
    <i name="BMIX">      1.00000000</i>
    <i name="AMIN">      0.10000000</i>
    <i name="AMIX_MAG">      1.60000000</i>
    <i name="BMIX_MAG">      1.00000000</i>
    <separator name="electronic mixer details" >
     <i type="int" name="IMIX">     4</i>
     <i type="logical" name="MIXFIRST"> F  </i>
     <i type="int" name="MAXMIX">   -45</i>
     <i name="WC">    100.00000000</i>
     <i type="int" name="INIMIX">     1</i>
     <i type="int" name="MIXPRE">     1</i>
     <i type="int" name="MREMOVE">     5</i>
    </separator>
   </separator>
   <separator name="electronic dipolcorrection" >
    <i type="logical" name="LDIPOL"> F  </i>
    <i type="logical" name="LMONO"> F  </i>
    <i type="int" name="IDIPOL">     3</i>
    <i name="EPSILON">      1.00000000</i>
    <v name="DIPOL">   -100.00000000   -100.00000000   -100.00000000</v>
    <i name="EFIELD">      0.00000000</i>
   </separator>
  </separator>
  <separator name="grids" >
   <i type="int" name="NGX">    18</i>
   <i type="int" name="NGY">    14</i>
   <i type="int" name="NGZ">   120</i>
   <i type="int" name="NGXF">    36</i>
   <i type="int" name="NGYF">    28</i>
   <i type="int" name="NGZF">   240</i>
   <i type="logical" name="ADDGRID"> F  </i>
  </separator>
  <separator name="ionic" >
   <i type="int" name="NSW">   800</i>
   <i type="int" name="IBRION">     2</i>
   <i type="int" name="MDALGO">     0</i>
   <i type="int" name="ISIF">     2</i>
   <i name="PSTRESS">      0.00000000</i>
   <i name="EDIFFG">     -0.03000000</i>
   <i type="int" name="NFREE">     1</i>
   <i name="POTIM">      0.50000000</i>
   <i name="SMASS">     -3.00000000</i>
   <i name="SCALEE">      1.00000000</i>
  </separator>
  <separator name="ionic md" >
   <i name="TEBEG">      0.00010000</i>
   <i name="TEEND">      0.00010000</i>
   <i type="int" name="NBLOCK">     1</i>
   <i type="int" name="KBLOCK">   800</i>
   <i type="int" name="NPACO">   256</i>
   <i name="APACO">     10.00000000</i>
  </separator>
  <separator name="symmetry" >
   <i type="int" name="ISYM">     1</i>
   <i name="SYMPREC">      0.00001000</i>
  </separator>
  <separator name="dos" >
   <i type="int" name="LORBIT">     0</i>
   <v name="RWIGS">     -1.00000000</v>
   <i type="int" name="NEDOS">   301</i>
   <i name="EMIN">     10.00000000</i>
   <i name="EMAX">    -10.00000000</i>
   <i name="EFERMI">      0.00000000</i>
  </separator>
  <separator name="writing" >
   <i type="int" name="NWRITE">     2</i>
   <i type="logical" name="LWAVE"> F  </i>
   <i type="logical" name="LDOWNSAMPLE"> F  </i>
   <i type="logical" name="LCHARG"> F  </i>
   <i type="logical" name="LPARD"> F  </i>
   <i type="logical" name="LVTOT"> F  </i>
   <i type="logical" name="LVHAR"> F  </i>
   <i type="logical" name="LELF"> F  </i>
   <i type="logical" name="LOPTICS"> F  </i>
   <v name="STM">      0.00000000      0.00000000      0.00000000      0.00000000      0.00000000      0.00000000      0.00000000</v>
  </separator>
  <separator name="performance" >
   <i type="int" name="NPAR">     4</i>
   <i type="int" name="NSIM">     4</i>
   <i type="int" name="NBLK">    -1</i>
   <i type="logical" name="LPLANE"> T  </i>
   <i type="logical" name="LSCALAPACK"> T  </i>
   <i type="logical" name="LSCAAWARE"> F  </i>
   <i type="logical" name="LSCALU"> F  </i>
   <i type="logical" name="LASYNC"> F  </i>
   <i type="logical" name="LORBITALREAL"> F  </i>
  </separator>
  <separator name="miscellaneous" >
   <i type="int" name="IDIOT">     3</i>
   <i type="int" name="PHON_NSTRUCT">    -1</i>
   <i type="logical" name="LMUSIC"> F  </i>
   <v name="POMASS">     63.54600000</v>
   <v name="DARWINR">      0.00000000</v>
   <v name="DARWINV">      1.00000000</v>
   <i type="logical" name="LCORR"> T  </i>
  </separator>
  <i type="logical" name="GGA_COMPAT"> T  </i>
  <i type="logical" name="LBERRY"> F  </i>
  <i type="int" name="ICORELEVEL">     0</i>
  <i type="logical" name="LDAU"> F  </i>
  <i type="int" name="I_CONSTRAINED_M">     0</i>
  <separator name="electronic exchange-correlation" >
   <i type="string" name="GGA">PE</i>
   <i type="int" name="VOSKOWN">     0</i>
   <i type="logical" name="LHFCALC"> F  </i>
   <i type="string" name="PRECFOCK"></i>
   <i type="logical" name="LSYMGRAD"> F  </i>
   <i type="logical" name="LHFONE"> F  </i>
   <i type="logical" name="LRHFCALC"> F  </i>
   <i type="logical" name="LTHOMAS"> F  </i>
   <i type="logical" name="LMODELHF"> F  </i>
   <i type="logical" name="LFOCKACE"> F  </i>
   <i name="ENCUT4O">     -1.00000000</i>
   <i type="int" name="EXXOEP">     0</i>
   <i type="int" name="FOURORBIT">     0</i>
   <i name="AEXX">      0.00000000</i>
   <i name="HFALPHA">      0.00000000</i>
   <i name="MCALPHA">      0.00000000</i>
   <i name="ALDAX">      1.00000000</i>
   <i name="AGGAX">      1.00000000</i>
   <i name="ALDAC">      1.00000000</i>
   <i name="AGGAC">      1.00000000</i>
   <i type="int" name="NKREDX">     1</i>
   <i type="int" name="NKREDY">     1</i>
   <i type="int" name="NKREDZ">     1</i>
   <i type="logical" name="SHIFTRED"> F  </i>
   <i type="logical" name="ODDONLY"> F  </i>
   <i type="logical" name="EVENONLY"> F  </i>
   <i type="int" name="LMAXFOCK">     0</i>
   <i type="int" name="NMAXFOCKAE">     0</i>
   <i type="logical" name="LFOCKAEDFT"> F  </i>
   <i name="HFSCREEN">      0.00000000</i>
   <i name="HFSCREENC">      0.00000000</i>
   <i type="int" name="NBANDSGWLOW">     0</i>
  </separator>
  <separator name="vdW DFT" >
   <i type="logical" name="LUSE_VDW"> F  </i>
   <i name="Zab_VDW">     -0.84910000</i>
   <i name="PARAM1">      0.12340000</i>
   <i name="PARAM2">      1.00000000</i>
   <i name="PARAM3">      0.00000000</i>
  </separator>
  <separator name="model GW" >
   <i type="int" name="MODEL_GW">     0</i>
   <i name="MODEL_EPS0">     16.76013064</i>
   <i name="MODEL_ALPHA">      1.00000000</i>
  </separator>
  <separator name="linear response parameters" >
   <i type="logical" name="LEPSILON"> F  </i>
   <i type="logical" name="LRPA"> F  </i>
   <i type="logical" name="LNABLA"> F  </i>
   <i type="logical" name="LVEL"> F  </i>
   <i name="CSHIFT">      0.10000000</i>
   <i name="OMEGAMAX">     -1.00000000</i>
   <i name="DEG_THRESHOLD">      0.00200000</i>
   <i name="RTIME">     -0.10000000</i>
   <i name="WPLASMAI">      0.00000000</i>
   <v name="DFIELD">      0.00000000      0.00000000      0.00000000</v>
   <v name="WPLASMA">      0.00000000      0.00000000      0.00000000      0.00000000      0.00000000      0.00000000      0.00000000      0.00000000      0.00000000</v>
  </separator>
  <separator name="orbital magnetization" >
   <i type="logical" name="NUCIND"> F  </i>
   <v name="MAGPOS">      0.00000000      0.00000000      0.00000000</v>
   <i type="logical" name="LNICSALL"> T  </i>
   <i type="logical" name="ORBITALMAG"> F  </i>
   <i type="logical" name="LMAGBLOCH"> F  </i>
   <i type="logical" name="LCHIMAG"> F  </i>
   <i type="logical" name="LGAUGE"> T  </i>
   <i type="int" name="MAGATOM">     0</i>
   <v name="MAGDIPOL">      0.00000000      0.00000000      0.00000000</v>
   <v name="AVECCONST">      0.00000000      0.00000000      0.00000000</v>
  </separator>
  <separator name="response functions" >
   <i type="logical" name="LFINITE_TEMPERATURE"> F  </i>
   <i type="logical" name="LADDER"> F  </i>
   <i type="logical" name="LRPAFORCE"> F  </i>
   <i type="logical" name="LFXC"> F  </i>
   <i type="logical" name="LHARTREE"> T  </i>
   <i type="int" name="IBSE">     0</i>
   <v type="int" name="KPOINT">    -1     0     0     0</v>
   <i type="logical" name="LTCTC"> F  </i>
   <i type="logical" name="LTCTE"> F  </i>
   <i type="logical" name="LTETE"> F  </i>
   <i type="logical" name="LTRIPLET"> F  </i>
   <i type="logical" name="LFXCEPS"> F  </i>
   <i type="logical" name="LFXHEG"> F  </i>
   <i type="int" name="NATURALO">     2</i>
   <i type="logical" name="LHOLEGF"> F  </i>
   <i type="logical" name="L2ORDER"> F  </i>
   <i type="logical" name="LDMP1"> F  </i>
   <i type="logical" name="LMP2LT"> F  </i>
   <i type="logical" name="LSMP2LT"> F  </i>
   <i type="logical" name="LGWLF"> F  </i>
   <i name="ENCUTGW">     -2.00000000</i>
   <i name="ENCUTGWSOFT">     -2.00000000</i>
   <i name="ENCUTLF">     -1.00000000</i>
   <i type="logical" name="LESF_SPLINES"> F  </i>
   <i type="int" name="LMAXMP2">    -1</i>
   <i name="SCISSOR">      0.00000000</i>
   <i type="int" name="NOMEGA">     0</i>
   <i type="int" name="NOMEGAR">     0</i>
   <i type="int" name="NBANDSGW">    -1</i>
   <i type="int" name="NBANDSO">    -1</i>
   <i type="int" name="NBANDSV">    -1</i>
   <i type="int" name="NELMGW">     1</i>
   <i type="int" name="NELMHF">     1</i>
   <i type="int" name="DIM">     3</i>
   <i type="int" name="IESPILON">     4</i>
   <i type="int" name="ANTIRES">     0</i>
   <i name="OMEGAMAX">    -30.00000000</i>
   <i name="OMEGAMIN">    -30.00000000</i>
   <i name="OMEGATL">   -200.00000000</i>
   <i type="int" name="OMEGAGRID">     0</i>
   <i name="CSHIFT">     -0.10000000</i>
   <i type="logical" name="LSELFENERGY"> F  </i>
   <i type="logical" name="LSPECTRAL"> F  </i>
   <i type="logical" name="LSPECTRALGW"> F  </i>
   <i type="logical" name="LSINGLES"> F  </i>
   <i type="logical" name="LFERMIGW"> F  </i>
   <i type="logical" name="ODDONLYGW"> F  </i>
   <i type="logical" name="EVENONLYGW"> F  </i>
   <i type="int" name="NKREDLFX">     1</i>
   <i type="int" name="NKREDLFY">     1</i>
   <i type="int" name="NKREDLFZ">     1</i>
   <i type="int" name="MAXMEM">  2800</i>
   <i type="int" name="TELESCOPE">     0</i>
   <i type="int" name="NTAUPAR">    -1</i>
   <i type="int" name="NOMEGAPAR">    -1</i>
   <i name="DAMP_NEWTON">      0.80000001</i>
   <i name="LAMBDA">      1.00000000</i>
  </separator>
  <separator name="External order field" >
   <i name="OFIELD_KAPPA">      0.00000000</i>
   <v name="OFIELD_K">      0.00000000      0.00000000      0.00000000</v>
   <i name="OFIELD_Q6_NEAR">      0.00000000</i>
   <i name="OFIELD_Q6_FAR">      0.00000000</i>
   <i name="OFIELD_A">      0.00000000</i>
  </separator>
  <separator name="optional k-points parameters" >
   <i type="int" name="KPOINTS_OPT_MODE">     1</i>
   <i type="logical" name="LKPOINTS_OPT"> F  </i>
  </separator>
 </parameters>
 <atominfo>
  <atoms>       8 </atoms>
  <types>       1 </types>
  <array name="atoms" >
   <dimension dim="1">ion</dimension>
   <field type="string">element</field>
   <field type="int">atomtype</field>
   <set>
    <rc><c>Cu</c><c>   1</c></rc>
    <rc><c>Cu</c><c>   1</c></rc>
    <rc><c>Cu</c><c>   1</c></rc>
    <rc><c>Cu</c><c>   1</c></rc>
    <rc><c>Cu</c><c>   1</c></rc>
    <rc><c>Cu</c><c>   1</c></rc>
    <rc><c>Cu</c><c>   1</c></rc>
    <rc><c>Cu</c><c>   1</c></rc>
   </set>
  </array>
  <array name="atomtypes" >
   <dimension dim="1">type</dimension>
   <field type="int">atomspertype</field>
   <field type="string">element</field>
   <field>mass</field>
   <field>valence</field>
   <field type="string">pseudopotential</field>
   <set>
    <rc><c>   8</c><c>Cu</c><c>     63.54600000</c><c>     11.00000000</c><c>  PAW_PBE Cu 22Jun2005                  </c></rc>
   </set>
  </array>
 </atominfo>
 <structure name="initialpos" >
  <crystal>
   <varray name="basis" >
    <v>       3.63000011       0.00000000       0.00000000 </v>
    <v>       0.00000000       2.56679773       0.00000000 </v>
    <v>       0.00000000       0.00000000      23.98379207 </v>
   </varray>
   <i name="volume">    223.46840857 </i>
   <varray name="rec_basis" >
    <v>       0.27548208       0.00000000       0.00000000 </v>
    <v>       0.00000000       0.38959050       0.00000000 </v>
    <v>       0.00000000       0.00000000       0.04169482 </v>
   </varray>
  </crystal>
  <varray name="positions" >
   <v>       0.00000000       0.00000000       0.00000000 </v>
   <v>       0.50000000       0.50000000       0.05351109 </v>
   <v>       0.00000000       0.00000000       0.10702218 </v>
   <v>       0.50000000       0.50000000       0.16053327 </v>
   <v>       0.00000000       0.00000000       0.21404436 </v>
   <v>       0.50000000       0.50000000       0.26755545 </v>
   <v>       0.00000000       0.00000000       0.32106654 </v>
   <v>       0.50000000       0.50000000       0.37457763 </v>
  </varray>
  <varray name="selective"  type="logical" >
   <v type="logical" >  F  F  F </v>
   <v type="logical" >  F  F  F </v>
   <v type="logical" >  T  T  T </v>
   <v type="logical" >  T  T  T </v>
   <v type="logical" >  T  T  T </v>
   <v type="logical" >  T  T  T </v>
   <v type="logical" >  T  T  T </v>
   <v type="logical" >  T  T  T </v>
  </varray>
  <nose>
   <v>      -3.00000000       0.00000000       0.00010000       0.00010000 </v>
  </nose>
 </structure>
 <calculation>
  <scstep>
   <time name="dav">    0.28    0.29</time>
   <time name="total">    0.31    0.33</time>
   <energy>
    <i name="alphaZ">    209.44792451 </i>
    <i name="ewald">  41050.08976242 </i>
    <i name="hartreedc"> -51831.74030107 </i>
    <i name="XCdc">    365.06467073 </i>
    <i name="pawpsdc">   9824.77996839 </i>
    <i name="pawaedc"> -10671.36745220 </i>
    <i name="eentropy">     -0.01556402 </i>
    <i name="bandstr">    673.23704977 </i>
    <i name="atom">  11127.66112160 </i>
    <i name="e_fr_energy">    747.15718013 </i>
    <i name="e_wo_entrp">    747.17274415 </i>
    <i name="e_0_energy">    747.16236814 </i>
   </energy>
  </scstep>
  <scstep>
   <time name="dav">    0.28    0.28</time>
   <time name="total">    0.28    0.28</time>
   <energy>
    <i name="e_fr_energy">     51.34781259 </i>
    <i name="e_wo_entrp">     51.34373812 </i>
    <i name="e_0_energy">     51.34645443 </i>
   </energy>
  </scstep>
  <scstep>
   <time name="dav">    0.29    0.29</time>
   <time name="total">    0.29    0.29</time>
   <energy>
    <i name="e_fr_energy">    -30.59338484 </i>
    <i name="e_wo_entrp">    -30.61847600 </i>
    <i name="e_0_energy">    -30.60174856 </i>
   </energy>
  </scstep>
  <scstep>
   <time name="dav">    0.31    0.31</time>
   <time name="total">    0.31    0.31</time>
   <energy>
    <i name="e_fr_energy">    -33.60358749 </i>
    <i name="e_wo_entrp">    -33.63216891 </i>
    <i name="e_0_energy">    -33.61311463 </i>
   </energy>
  </scstep>
  <scstep>
   <time name="dav">    0.31    0.31</time>
   <time name="total">    0.36    0.37</time>
   <energy>
    <i name="e_fr_energy">    -33.67375122 </i>
    <i name="e_wo_entrp">    -33.70239751 </i>
    <i name="e_0_energy">    -33.68329998 </i>
   </energy>
  </scstep>
  <scstep>
   <time name="dav">    0.28    0.29</time>
   <time name="total">    0.36    0.36</time>
   <energy>
    <i name="e_fr_energy">    -26.71808892 </i>
    <i name="e_wo_entrp">    -26.69856726 </i>
    <i name="e_0_energy">    -26.71158170 </i>
   </energy>
  </scstep>
  <scstep>
   <time name="dav">    0.29    0.29</time>
   <time name="total">    0.36    0.37</time>
   <energy>
    <i name="e_fr_energy">    -23.89811282 </i>
    <i name="e_wo_entrp">    -23.88909819 </i>
    <i name="e_0_energy">    -23.89510794 </i>
   </energy>
  </scstep>
  <scstep>
   <time name="dav">    0.34    0.35</time>
   <time name="total">    0.42    0.42</time>
   <energy>
    <i name="e_fr_energy">    -23.01231414 </i>
    <i name="e_wo_entrp">    -23.00510166 </i>
    <i name="e_0_energy">    -23.00990998 </i>
   </energy>
  </scstep>
  <scstep>
   <time name="dav">    0.36    0.36</time>
   <time name="total">    0.43    0.44</time>
   <energy>
    <i name="e_fr_energy">    -22.44723467 </i>
    <i name="e_wo_entrp">    -22.44297532 </i>
    <i name="e_0_energy">    -22.44581489 </i>
   </energy>
  </scstep>
  <scstep>
   <time name="dav">    0.34    0.34</time>
   <time name="total">    0.42    0.42</time>
   <energy>
    <i name="e_fr_energy">    -22.09576742 </i>
    <i name="e_wo_entrp">    -22.08705771 </i>
    <i name="e_0_energy">    -22.09286418 </i>
   </energy>
  </scstep>
  <scstep>
   <time name="dav">    0.36    0.36</time>
   <time name="total">    0.44    0.44</time>
   <energy>
    <i name="e_fr_energy">    -22.12365765 </i>
    <i name="e_wo_entrp">    -22.11206778 </i>
    <i name="e_0_energy">    -22.11979436 </i>
   </energy>
  </scstep>
  <scstep>
   <time name="dav">    0.30    0.30</time>
   <time name="total">    0.37    0.37</time>
   <energy>
    <i name="e_fr_energy">    -23.95806087 </i>
    <i name="e_wo_entrp">    -23.94575566 </i>
    <i name="e_0_energy">    -23.95395913 </i>
   </energy>
  </scstep>
  <scstep>
   <time name="dav">    0.33    0.33</time>
   <time name="total">    0.40    0.41</time>
   <energy>
    <i name="e_fr_energy">    -25.97905567 </i>
    <i name="e_wo_entrp">    -25.97897387 </i>
    <i name="e_0_energy">    -25.97902840 </i>
   </energy>
  </scstep>
  <scstep>
   <time name="dav">    0.32    0.32</time>
   <time name="total">    0.39    0.40</time>
   <energy>
    <i name="e_fr_energy">    -26.86057825 </i>
    <i name="e_wo_entrp">    -26.85723565 </i>
    <i name="e_0_energy">    -26.85946405 </i>
   </energy>
  </scstep>
  <scstep>
   <time name="dav">    0.34    0.34</time>
   <time name="total">    0.42    0.42</time>
   <energy>
    <i name="e_fr_energy">    -27.49947076 </i>
    <i name="e_wo_entrp">    -27.49239062 </i>
    <i name="e_0_energy">    -27.49711071 </i>
   </energy>
  </scstep>
  <scstep>
   <time name="dav">    0.35    0.35</time>
   <time name="total">    0.43    0.43</time>
   <energy>
    <i name="e_fr_energy">    -27.86154516 </i>
    <i name="e_wo_entrp">    -27.85009983 </i>
    <i name="e_0_energy">    -27.85773005 </i>
   </energy>
  </scstep>
  <scstep>
   <time name="dav">    0.31    0.31</time>
   <time name="total">    0.38    0.39</time>
   <energy>
    <i name="e_fr_energy">    -28.09513428 </i>
    <i name="e_wo_entrp">    -28.08266704 </i>
    <i name="e_0_energy">    -28.09097853 </i>
   </energy>
  </scstep>
  <scstep>
   <time name="dav">    0.32    0.32</time>
   <time name="total">    0.39    0.40</time>
   <energy>
    <i name="e_fr_energy">    -28.19850470 </i>
    <i name="e_wo_entrp">    -28.18924493 </i>
    <i name="e_0_energy">    -28.19541811 </i>
   </energy>
  </scstep>
  <scstep>
   <time name="dav">    0.32    0.32</time>
   <time name="total">    0.40    0.40</time>
   <energy>
    <i name="e_fr_energy">    -28.25621024 </i>
    <i name="e_wo_entrp">    -28.25060572 </i>
    <i name="e_0_energy">    -28.25434207 </i>
   </energy>
  </scstep>
  <scstep>
   <time name="dav">    0.31    0.31</time>
   <time name="total">    0.39    0.39</time>
   <energy>
    <i name="e_fr_energy">    -28.35188896 </i>
    <i name="e_wo_entrp">    -28.34621241 </i>
    <i name="e_0_energy">    -28.34999678 </i>
   </energy>
  </scstep>
  <scstep>
   <time name="dav">    0.33    0.34</time>
   <time name="total">    0.41    0.42</time>
   <energy>
    <i name="e_fr_energy">    -28.42792974 </i>
    <i name="e_wo_entrp">    -28.42355871 </i>
    <i name="e_0_energy">    -28.42647273 </i>
   </energy>
  </scstep>
  <scstep>
   <time name="dav">    0.31    0.31</time>
   <time name="total">    0.38    0.39</time>
   <energy>
    <i name="e_fr_energy">    -28.47008543 </i>
    <i name="e_wo_entrp">    -28.46644598 </i>
    <i name="e_0_energy">    -28.46887228 </i>
   </energy>
  </scstep>
  <scstep>
   <time name="dav">    0.30    0.30</time>
   <time name="total">    0.37    0.38</time>
   <energy>
    <i name="e_fr_energy">    -28.53902124 </i>
    <i name="e_wo_entrp">    -28.53486870 </i>
    <i name="e_0_energy">    -28.53763706 </i>
   </energy>
  </scstep>
  <scstep>
   <time name="dav">    0.30    0.30</time>
   <time name="total">    0.37    0.38</time>
   <energy>
    <i name="e_fr_energy">    -28.56286683 </i>
    <i name="e_wo_entrp">    -28.55902608 </i>
    <i name="e_0_energy">    -28.56158658 </i>
   </energy>
  </scstep>
  <scstep>
   <time name="dav">    0.24    0.24</time>
   <time name="total">    0.32    0.32</time>
   <energy>
    <i name="e_fr_energy">    -28.58477134 </i>
    <i name="e_wo_entrp">    -28.58108395 </i>
    <i name="e_0_energy">    -28.58354221 </i>
   </energy>
  </scstep>
  <scstep>
   <time name="dav">    0.23    0.23</time>
   <time name="total">    0.31    0.31</time>
   <energy>
    <i name="e_fr_energy">    -28.58767778 </i>
    <i name="e_wo_entrp">    -28.58405817 </i>
    <i name="e_0_energy">    -28.58647124 </i>
   </energy>
  </scstep>
  <scstep>
   <time name="dav">    0.22    0.22</time>
   <time name="total">    0.30    0.30</time>
   <energy>
    <i name="e_fr_energy">    -28.58864202 </i>
    <i name="e_wo_entrp">    -28.58500399 </i>
    <i name="e_0_energy">    -28.58742934 </i>
   </energy>
  </scstep>
  <scstep>
   <time name="dav">    0.21    0.22</time>
   <time name="total">    0.29    0.29</time>
   <energy>
    <i name="e_fr_energy">    -28.58940428 </i>
    <i name="e_wo_entrp">    -28.58574368 </i>
    <i name="e_0_energy">    -28.58818408 </i>
   </energy>
  </scstep>
  <scstep>
   <time name="dav">    0.23    0.23</time>
   <time name="total">    0.26    0.26</time>
   <energy>
    <i name="alphaZ">    209.44792451 </i>
    <i name="ewald">  41050.08976242 </i>
    <i name="hartreedc"> -51734.68248908 </i>
    <i name="XCdc">    356.21076042 </i>
    <i name="pawpsdc">  10411.77397582 </i>
    <i name="pawaedc"> -11272.10125707 </i>
    <i name="eentropy">     -0.00366271 </i>
    <i name="bandstr">   -176.98561735 </i>
    <i name="atom">  11127.66112160 </i>
    <i name="e_fr_energy">    -28.58948145 </i>
    <i name="e_wo_entrp">    -28.58581874 </i>
    <i name="e_0_energy">    -28.58826054 </i>
   </energy>
  </scstep>
  <dipole>
   <v name="dipole">      0.00000000       0.00000000       0.00568803 </v>
   <i name="Tr[quadrupol]">   -216.80044784 </i>
   <i name="Echarged">      0.00000000 </i>
   <i name="Edipol_quadrupol">      0.00000000 </i>
   <i name="Eion">      0.00000000 </i>
  </dipole>
  <structure>
   <crystal>
    <varray name="basis" >
     <v>       3.63000011       0.00000000       0.00000000 </v>
     <v>       0.00000000       2.56679773       0.00000000 </v>
     <v>       0.00000000       0.00000000      23.98379207 </v>
    </varray>
    <i name="volume">    223.46840857 </i>
    <varray name="rec_basis" >
     <v>       0.27548208       0.00000000       0.00000000 </v>
     <v>       0.00000000       0.38959050       0.00000000 </v>
     <v>       0.00000000       0.00000000       0.04169482 </v>
    </varray>
   </crystal>
   <varray name="positions" >
    <v>       0.00000000       0.00000000       0.00000000 </v>
    <v>       0.50000000       0.50000000       0.05351109 </v>
    <v>       0.00000000       0.00000000       0.10702218 </v>
    <v>       0.50000000       0.50000000       0.16053327 </v>
    <v>       0.00000000       0.00000000       0.21404436 </v>
    <v>       0.50000000       0.50000000       0.26755545 </v>
    <v>       0.00000000       0.00000000       0.32106654 </v>
    <v>       0.50000000       0.50000000       0.37457763 </v>
   </varray>
  </structure>
  <varray name="forces" >
   <v>       0.00000000       0.00000000       0.62256003 </v>
   <v>       0.00000000       0.00000000      -0.25220101 </v>
   <v>       0.00000000       0.00000000      -0.09778885 </v>
   <v>       0.00000000       0.00000000      -0.07006130 </v>
   <v>       0.00000000       0.00000000       0.06561301 </v>
   <v>       0.00000000       0.00000000       0.09629914 </v>
   <v>       0.00000000       0.00000000       0.25431638 </v>
   <v>       0.00000000       0.00000000      -0.61873740 </v>
  </varray>
  <varray name="stress" >
   <v>     -50.88666194       0.00000000       0.00000000 </v>
   <v>       0.00000000     -41.34543614       0.00000000 </v>
   <v>       0.00000000       0.00000000     -28.09720148 </v>
  </varray>
  <energy>
   <i name="e_fr_energy">    -31.55507953 </i>
   <i name="e_wo_entrp">    -31.55141683 </i>
   <i name="e_0_energy">    -31.55385863 </i>
  </energy>
  <time name="totalsc">   10.99   11.12</time>
 </calculation>
 <calculation>
  <scstep>
   <time name="dav">    0.28    0.28</time>
   <time name="total">    0.36    0.36</time>
   <energy>
    <i name="alphaZ">    209.44792451 </i>
    <i name="ewald">  41119.25246405 </i>
    <i name="hartreedc"> -51803.58358868 </i>
    <i name="XCdc">    356.25973318 </i>
    <i name="pawpsdc">  10411.82093502 </i>
    <i name="pawaedc"> -11272.15202166 </i>
    <i name="eentropy">     -0.00328258 </i>
    <i name="bandstr">   -177.30078701 </i>
    <i name="atom">  11127.66112160 </i>
    <i name="e_fr_energy">    -28.59750158 </i>
    <i name="e_wo_entrp">    -28.59421900 </i>
    <i name="e_0_energy">    -28.59640738 </i>
   </energy>
  </scstep>
  <scstep>
   <time name="dav">    0.38    0.38</time>
   <time name="total">    0.45    0.45</time>
   <energy>
    <i name="e_fr_energy">    -28.60947916 </i>
    <i name="e_wo_entrp">    -28.60596617 </i>
    <i name="e_0_energy">    -28.60830816 </i>
   </energy>
  </scstep>
  <scstep>
   <time name="dav">    0.32    0.33</time>
   <time name="total">    0.40    0.40</time>
   <energy>
    <i name="e_fr_energy">    -28.60811879 </i>
    <i name="e_wo_entrp">    -28.60486302 </i>
    <i name="e_0_energy">    -28.60703353 </i>
   </energy>
  </scstep>
  <scstep>
   <time name="dav">    0.29    0.30</time>
   <time name="total">    0.37    0.37</time>
   <energy>
    <i name="e_fr_energy">    -28.60810949 </i>
    <i name="e_wo_entrp">    -28.60479928 </i>
    <i name="e_0_energy">    -28.60700609 </i>
   </energy>
  </scstep>
  <scstep>
   <time name="dav">    0.28    0.28</time>
   <time name="total">    0.30    0.31</time>
   <energy>
    <i name="alphaZ">    209.44792451 </i>
    <i name="ewald">  41119.25246405 </i>
    <i name="hartreedc"> -51803.04547427 </i>
    <i name="XCdc">    356.24026887 </i>
    <i name="pawpsdc">  10415.32020407 </i>
    <i name="pawaedc"> -11275.64553706 </i>
    <i name="eentropy">     -0.00333978 </i>
    <i name="bandstr">   -177.83569244 </i>
    <i name="atom">  11127.66112160 </i>
    <i name="e_fr_energy">    -28.60806045 </i>
    <i name="e_wo_entrp">    -28.60472068 </i>
    <i name="e_0_energy">    -28.60694720 </i>
   </energy>
  </scstep>
  <dipole>
   <v name="dipole">      0.00000000       0.00000000       0.00072428 </v>
   <i name="Tr[quadrupol]">   -216.79123564 </i>
   <i name="Echarged">      0.00000000 </i>
   <i name="Edipol_quadrupol">      0.00000000 </i>
   <i name="Eion">      0.00000000 </i>
  </dipole>
  <structure>
   <crystal>
    <varray name="basis" >
     <v>       3.63000011       0.00000000       0.00000000 </v>
     <v>       0.00000000       2.56679773       0.00000000 </v>
     <v>       0.00000000       0.00000000      23.98379207 </v>
    </varray>
    <i name="volume">    223.46840857 </i>
    <varray name="rec_basis" >
     <v>       0.27548208       0.00000000       0.00000000 </v>
     <v>       0.00000000       0.38959050       0.00000000 </v>
     <v>       0.00000000       0.00000000       0.04169482 </v>
    </varray>
   </crystal>
   <varray name="positions" >
    <v>       0.00000000       0.00000000       0.00000000 </v>
    <v>       0.50000000       0.50000000       0.05351109 </v>
    <v>       0.00000000       0.00000000       0.10682548 </v>
    <v>       0.50000000       0.50000000       0.16039235 </v>
    <v>       0.00000000       0.00000000       0.21417634 </v>
    <v>       0.50000000       0.50000000       0.26774915 </v>
    <v>       0.00000000       0.00000000       0.32157809 </v>
    <v>       0.50000000       0.50000000       0.37333306 </v>
   </varray>
  </structure>
  <varray name="forces" >
   <v>       0.00000000       0.00000000       0.61091045 </v>
   <v>       0.00000000       0.00000000      -0.26741217 </v>
   <v>       0.00000000       0.00000000      -0.05410199 </v>
   <v>       0.00000000       0.00000000      -0.02773078 </v>
   <v>       0.00000000       0.00000000       0.04518232 </v>
   <v>       0.00000000       0.00000000       0.01999757 </v>
   <v>       0.00000000       0.00000000       0.13592478 </v>
   <v>       0.00000000       0.00000000      -0.46277018 </v>
  </varray>
  <varray name="stress" >
   <v>     -44.95914428       0.00000000       0.00000000 </v>
   <v>       0.00000000     -36.13441683       0.00000000 </v>
   <v>       0.00000000       0.00000000     -22.37703305 </v>
  </varray>
  <energy>
   <i name="e_fr_energy">    -31.57498483 </i>
   <i name="e_wo_entrp">    -31.57164506 </i>
   <i name="e_0_energy">    -31.57387158 </i>
  </energy>
  <time name="totalsc">    2.30    2.35</time>
 </calculation>
 <calculation>
  <scstep>
   <time name="dav">    0.28    0.28</time>
   <time name="total">    0.36    0.36</time>
   <energy>
    <i name="alphaZ">    209.44792451 </i>
    <i name="ewald">  41281.46017316 </i>
    <i name="hartreedc"> -51964.54400212 </i>
    <i name="XCdc">    356.36810708 </i>
    <i name="pawpsdc">  10416.43306068 </i>
    <i name="pawaedc"> -11276.83068201 </i>
    <i name="eentropy">     -0.00246742 </i>
    <i name="bandstr">   -178.55320194 </i>
    <i name="atom">  11127.66112160 </i>
    <i name="e_fr_energy">    -28.55996647 </i>
    <i name="e_wo_entrp">    -28.55749905 </i>
    <i name="e_0_energy">    -28.55914400 </i>
   </energy>
  </scstep>
  <scstep>
   <time name="dav">    0.38    0.38</time>
   <time name="total">    0.45    0.46</time>
   <energy>
    <i name="e_fr_energy">    -28.63345416 </i>
    <i name="e_wo_entrp">    -28.63020096 </i>
    <i name="e_0_energy">    -28.63236976 </i>
   </energy>
  </scstep>
  <scstep>
   <time name="dav">    0.32    0.32</time>
   <time name="total">    0.40    0.40</time>
   <energy>
    <i name="e_fr_energy">    -28.62581479 </i>
    <i name="e_wo_entrp">    -28.62320555 </i>
    <i name="e_0_energy">    -28.62494505 </i>
   </energy>
  </scstep>
  <scstep>
   <time name="dav">    0.32    0.33</time>
   <time name="total">    0.40    0.40</time>
   <energy>
    <i name="e_fr_energy">    -28.62578475 </i>
    <i name="e_wo_entrp">    -28.62311661 </i>
    <i name="e_0_energy">    -28.62489537 </i>
   </energy>
  </scstep>
  <scstep>
   <time name="dav">    0.30    0.31</time>
   <time name="total">    0.38    0.38</time>
   <energy>
    <i name="e_fr_energy">    -28.62547181 </i>
    <i name="e_wo_entrp">    -28.62277434 </i>
    <i name="e_0_energy">    -28.62457265 </i>
   </energy>
  </scstep>
  <scstep>
   <time name="dav">    0.39    0.40</time>
   <time name="total">    0.47    0.47</time>
   <energy>
    <i name="e_fr_energy">    -28.62458183 </i>
    <i name="e_wo_entrp">    -28.62195365 </i>
    <i name="e_0_energy">    -28.62370577 </i>
   </energy>
  </scstep>
  <scstep>
   <time name="dav">    0.22    0.23</time>
   <time name="total">    0.25    0.25</time>
   <energy>
    <i name="alphaZ">    209.44792451 </i>
    <i name="ewald">  41281.46017316 </i>
    <i name="hartreedc"> -51962.81962386 </i>
    <i name="XCdc">    356.31736961 </i>
    <i name="pawpsdc">  10432.38291945 </i>
    <i name="pawaedc"> -11293.13673859 </i>
    <i name="eentropy">     -0.00267646 </i>
    <i name="bandstr">   -179.93503654 </i>
    <i name="atom">  11127.66112160 </i>
    <i name="e_fr_energy">    -28.62456713 </i>
    <i name="e_wo_entrp">    -28.62189067 </i>
    <i name="e_0_energy">    -28.62367497 </i>
   </energy>
  </scstep>
  <dipole>
   <v name="dipole">      0.00000000       0.00000000       0.00106091 </v>
   <i name="Tr[quadrupol]">   -216.76071284 </i>
   <i name="Echarged">      0.00000000 </i>
   <i name="Edipol_quadrupol">      0.00000000 </i>
   <i name="Eion">      0.00000000 </i>
  </dipole>
  <structure>
   <crystal>
    <varray name="basis" >
     <v>       3.63000011       0.00000000       0.00000000 </v>
     <v>       0.00000000       2.56679773       0.00000000 </v>
     <v>       0.00000000       0.00000000      23.98379207 </v>
    </varray>
    <i name="volume">    223.46840857 </i>
    <varray name="rec_basis" >
     <v>       0.27548208       0.00000000       0.00000000 </v>
     <v>       0.00000000       0.38959050       0.00000000 </v>
     <v>       0.00000000       0.00000000       0.04169482 </v>
    </varray>
   </crystal>
   <varray name="positions" >
    <v>       0.00000000       0.00000000       0.00000000 </v>
    <v>       0.50000000       0.50000000       0.05351109 </v>
    <v>       0.00000000       0.00000000       0.10636591 </v>
    <v>       0.50000000       0.50000000       0.16006309 </v>
    <v>       0.00000000       0.00000000       0.21448469 </v>
    <v>       0.50000000       0.50000000       0.26820172 </v>
    <v>       0.00000000       0.00000000       0.32277327 </v>
    <v>       0.50000000       0.50000000       0.37042525 </v>
   </varray>
  </structure>
  <varray name="forces" >
   <v>       0.00000000       0.00000000       0.59182327 </v>
   <v>       0.00000000       0.00000000      -0.29867289 </v>
   <v>       0.00000000       0.00000000       0.02236663 </v>
   <v>       0.00000000       0.00000000       0.04624495 </v>
   <v>       0.00000000       0.00000000      -0.00389049 </v>
   <v>       0.00000000       0.00000000      -0.18362830 </v>
   <v>       0.00000000       0.00000000      -0.10011909 </v>
   <v>       0.00000000       0.00000000      -0.07412409 </v>
  </varray>
  <varray name="stress" >
   <v>     -47.55188328       0.00000000       0.00000000 </v>
   <v>       0.00000000     -40.57715091       0.00000000 </v>
   <v>       0.00000000       0.00000000     -24.14179388 </v>
  </varray>
  <energy>
   <i name="e_fr_energy">    -31.59470104 </i>
   <i name="e_wo_entrp">    -31.59202459 </i>
   <i name="e_0_energy">    -31.59380889 </i>
  </energy>
  <time name="totalsc">    3.12    3.19</time>
 </calculation>
 <calculation>
  <scstep>
   <time name="dav">    0.29    0.29</time>
   <time name="total">    0.36    0.36</time>
   <energy>
    <i name="alphaZ">    209.44792451 </i>
    <i name="ewald">  41372.44682126 </i>
    <i name="hartreedc"> -52053.57841080 </i>
    <i name="XCdc">    356.33910469 </i>
    <i name="pawpsdc">  10432.15265549 </i>
    <i name="pawaedc"> -11292.89879137 </i>
    <i name="eentropy">     -0.00252282 </i>
    <i name="bandstr">   -180.18931426 </i>
    <i name="atom">  11127.66112160 </i>
    <i name="e_fr_energy">    -28.62141169 </i>
    <i name="e_wo_entrp">    -28.61888888 </i>
    <i name="e_0_energy">    -28.62057075 </i>
   </energy>
  </scstep>
  <scstep>
   <time name="dav">    0.38    0.38</time>
   <time name="total">    0.45    0.46</time>
   <energy>
    <i name="e_fr_energy">    -28.62411159 </i>
    <i name="e_wo_entrp">    -28.62153806 </i>
    <i name="e_0_energy">    -28.62325374 </i>
   </energy>
  </scstep>
  <scstep>
   <time name="dav">    0.30    0.30</time>
   <time name="total">    0.37    0.38</time>
   <energy>
    <i name="e_fr_energy">    -28.62398675 </i>
    <i name="e_wo_entrp">    -28.62145051 </i>
    <i name="e_0_energy">    -28.62314134 </i>
   </energy>
  </scstep>
  <scstep>
   <time name="dav">    0.23    0.24</time>
   <time name="total">    0.26    0.26</time>
   <energy>
    <i name="alphaZ">    209.44792451 </i>
    <i name="ewald">  41372.44682126 </i>
    <i name="hartreedc"> -52053.33998553 </i>
    <i name="XCdc">    356.32826118 </i>
    <i name="pawpsdc">  10433.26803835 </i>
    <i name="pawaedc"> -11293.97339933 </i>
    <i name="eentropy">     -0.00254296 </i>
    <i name="bandstr">   -180.46021142 </i>
    <i name="atom">  11127.66112160 </i>
    <i name="e_fr_energy">    -28.62397235 </i>
    <i name="e_wo_entrp">    -28.62142939 </i>
    <i name="e_0_energy">    -28.62312470 </i>
   </energy>
  </scstep>
  <dipole>
   <v name="dipole">      0.00000000       0.00000000       0.00004175 </v>
   <i name="Tr[quadrupol]">   -216.75395138 </i>
   <i name="Echarged">      0.00000000 </i>
   <i name="Edipol_quadrupol">      0.00000000 </i>
   <i name="Eion">      0.00000000 </i>
  </dipole>
  <structure>
   <crystal>
    <varray name="basis" >
     <v>       3.63000011       0.00000000       0.00000000 </v>
     <v>       0.00000000       2.56679773       0.00000000 </v>
     <v>       0.00000000       0.00000000      23.98379207 </v>
    </varray>
    <i name="volume">    223.46840857 </i>
    <varray name="rec_basis" >
     <v>       0.27548208       0.00000000       0.00000000 </v>
     <v>       0.00000000       0.38959050       0.00000000 </v>
     <v>       0.00000000       0.00000000       0.04169482 </v>
    </varray>
   </crystal>
   <varray name="positions" >
    <v>       0.00000000       0.00000000       0.00000000 </v>
    <v>       0.50000000       0.50000000       0.05351109 </v>
    <v>       0.00000000       0.00000000       0.10639864 </v>
    <v>       0.50000000       0.50000000       0.16017572 </v>
    <v>       0.00000000       0.00000000       0.21449555 </v>
    <v>       0.50000000       0.50000000       0.26769255 </v>
    <v>       0.00000000       0.00000000       0.32256436 </v>
    <v>       0.50000000       0.50000000       0.36999584 </v>
   </varray>
  </structure>
  <varray name="forces" >
   <v>       0.00000000       0.00000000       0.58988304 </v>
   <v>       0.00000000       0.00000000      -0.29882272 </v>
   <v>       0.00000000       0.00000000       0.00426183 </v>
   <v>       0.00000000       0.00000000      -0.01244423 </v>
   <v>       0.00000000       0.00000000      -0.03580956 </v>
   <v>       0.00000000       0.00000000      -0.11005661 </v>
   <v>       0.00000000       0.00000000      -0.10561692 </v>
   <v>       0.00000000       0.00000000      -0.03139482 </v>
  </varray>
  <varray name="stress" >
   <v>     -43.09086055       0.00000000       0.00000000 </v>
   <v>       0.00000000     -36.32229371       0.00000000 </v>
   <v>       0.00000000       0.00000000     -19.32395767 </v>
  </varray>
  <energy>
   <i name="e_fr_energy">    -31.59775463 </i>
   <i name="e_wo_entrp">    -31.59521167 </i>
   <i name="e_0_energy">    -31.59690698 </i>
  </energy>
  <time name="totalsc">    1.86    1.92</time>
 </calculation>
 <calculation>
  <scstep>
   <time name="dav">    0.28    0.29</time>
   <time name="total">    0.36    0.36</time>
   <energy>
    <i name="alphaZ">    209.44792451 </i>
    <i name="ewald">  41504.14092664 </i>
    <i name="hartreedc"> -52184.92011977 </i>
    <i name="XCdc">    356.36309046 </i>
    <i name="pawpsdc">  10433.65245803 </i>
    <i name="pawaedc"> -11294.39145767 </i>
    <i name="eentropy">     -0.00235748 </i>
    <i name="bandstr">   -180.56786238 </i>
    <i name="atom">  11127.66112160 </i>
    <i name="e_fr_energy">    -28.61627607 </i>
    <i name="e_wo_entrp">    -28.61391859 </i>
    <i name="e_0_energy">    -28.61549025 </i>
   </energy>
  </scstep>
  <scstep>
   <time name="dav">    0.38    0.38</time>
   <time name="total">    0.45    0.46</time>
   <energy>
    <i name="e_fr_energy">    -28.62181941 </i>
    <i name="e_wo_entrp">    -28.61946234 </i>
    <i name="e_0_energy">    -28.62103372 </i>
   </energy>
  </scstep>
  <scstep>
   <time name="dav">    0.30    0.30</time>
   <time name="total">    0.37    0.38</time>
   <energy>
    <i name="e_fr_energy">    -28.62160192 </i>
    <i name="e_wo_entrp">    -28.61923781 </i>
    <i name="e_0_energy">    -28.62081388 </i>
   </energy>
  </scstep>
  <scstep>
   <time name="dav">    0.26    0.26</time>
   <time name="total">    0.28    0.28</time>
   <energy>
    <i name="alphaZ">    209.44792451 </i>
    <i name="ewald">  41504.14092664 </i>
    <i name="hartreedc"> -52184.48098736 </i>
    <i name="XCdc">    356.34898876 </i>
    <i name="pawpsdc">  10435.82723714 </i>
    <i name="pawaedc"> -11296.54506639 </i>
    <i name="eentropy">     -0.00236834 </i>
    <i name="bandstr">   -181.01933923 </i>
    <i name="atom">  11127.66112160 </i>
    <i name="e_fr_energy">    -28.62156268 </i>
    <i name="e_wo_entrp">    -28.61919433 </i>
    <i name="e_0_energy">    -28.62077323 </i>
   </energy>
  </scstep>
  <dipole>
   <v name="dipole">      0.00000000       0.00000000      -0.00020068 </v>
   <i name="Tr[quadrupol]">   -216.74894637 </i>
   <i name="Echarged">      0.00000000 </i>
   <i name="Edipol_quadrupol">      0.00000000 </i>
   <i name="Eion">      0.00000000 </i>
  </dipole>
  <structure>
   <crystal>
    <varray name="basis" >
     <v>       3.63000011       0.00000000       0.00000000 </v>
     <v>       0.00000000       2.56679773       0.00000000 </v>
     <v>       0.00000000       0.00000000      23.98379207 </v>
    </varray>
    <i name="volume">    223.46840857 </i>
    <varray name="rec_basis" >
     <v>       0.27548208       0.00000000       0.00000000 </v>
     <v>       0.00000000       0.38959050       0.00000000 </v>
     <v>       0.00000000       0.00000000       0.04169482 </v>
    </varray>
   </crystal>
   <varray name="positions" >
    <v>       0.00000000       0.00000000       0.00000000 </v>
    <v>       0.50000000       0.50000000       0.05351109 </v>
    <v>       0.00000000       0.00000000       0.10644594 </v>
    <v>       0.50000000       0.50000000       0.16033855 </v>
    <v>       0.00000000       0.00000000       0.21451124 </v>
    <v>       0.50000000       0.50000000       0.26695647 </v>
    <v>       0.00000000       0.00000000       0.32226236 </v>
    <v>       0.50000000       0.50000000       0.36937507 </v>
   </varray>
  </structure>
  <varray name="forces" >
   <v>       0.00000000       0.00000000       0.59884341 </v>
   <v>       0.00000000       0.00000000      -0.28484710 </v>
   <v>       0.00000000       0.00000000       0.00157126 </v>
   <v>       0.00000000       0.00000000      -0.06538038 </v>
   <v>       0.00000000       0.00000000      -0.06978029 </v>
   <v>       0.00000000       0.00000000      -0.02631002 </v>
   <v>       0.00000000       0.00000000      -0.12403544 </v>
   <v>       0.00000000       0.00000000      -0.03006144 </v>
  </varray>
  <varray name="stress" >
   <v>     -40.06043170       0.00000000       0.00000000 </v>
   <v>       0.00000000     -33.64473814       0.00000000 </v>
   <v>       0.00000000       0.00000000     -15.87632664 </v>
  </varray>
  <energy>
   <i name="e_fr_energy">    -31.60064177 </i>
   <i name="e_wo_entrp">    -31.59827343 </i>
   <i name="e_0_energy">    -31.59985232 </i>
  </energy>
  <time name="totalsc">    1.89    1.92</time>
 </calculation>
 <calculation>
  <scstep>
   <time name="dav">    0.28    0.29</time>
   <time name="total">    0.36    0.36</time>
   <energy>
    <i name="alphaZ">    209.44792451 </i>
    <i name="ewald">  41768.09471280 </i>
    <i name="hartreedc"> -52448.08080458 </i>
    <i name="XCdc">    356.41974260 </i>
    <i name="pawpsdc">  10437.11932785 </i>
    <i name="pawaedc"> -11297.90720167 </i>
    <i name="eentropy">     -0.00207915 </i>
    <i name="bandstr">   -181.34009810 </i>
    <i name="atom">  11127.66112160 </i>
    <i name="e_fr_energy">    -28.58735415 </i>
    <i name="e_wo_entrp">    -28.58527500 </i>
    <i name="e_0_energy">    -28.58666110 </i>
   </energy>
  </scstep>
  <scstep>
   <time name="dav">    0.38    0.38</time>
   <time name="total">    0.45    0.45</time>
   <energy>
    <i name="e_fr_energy">    -28.61211495 </i>
    <i name="e_wo_entrp">    -28.61006774 </i>
    <i name="e_0_energy">    -28.61143255 </i>
   </energy>
  </scstep>
  <scstep>
   <time name="dav">    0.32    0.32</time>
   <time name="total">    0.39    0.40</time>
   <energy>
    <i name="e_fr_energy">    -28.61063227 </i>
    <i name="e_wo_entrp">    -28.60850497 </i>
    <i name="e_0_energy">    -28.60992317 </i>
   </energy>
  </scstep>
  <scstep>
   <time name="dav">    0.28    0.28</time>
   <time name="total">    0.36    0.36</time>
   <energy>
    <i name="e_fr_energy">    -28.61048860 </i>
    <i name="e_wo_entrp">    -28.60837561 </i>
    <i name="e_0_energy">    -28.60978427 </i>
   </energy>
  </scstep>
  <scstep>
   <time name="dav">    0.33    0.33</time>
   <time name="total">    0.40    0.41</time>
   <energy>
    <i name="e_fr_energy">    -28.61002726 </i>
    <i name="e_wo_entrp">    -28.60788422 </i>
    <i name="e_0_energy">    -28.60931291 </i>
   </energy>
  </scstep>
  <scstep>
   <time name="dav">    0.35    0.35</time>
   <time name="total">    0.43    0.43</time>
   <energy>
    <i name="e_fr_energy">    -28.60977344 </i>
    <i name="e_wo_entrp">    -28.60760147 </i>
    <i name="e_0_energy">    -28.60904945 </i>
   </energy>
  </scstep>
  <scstep>
   <time name="dav">    0.22    0.22</time>
   <time name="total">    0.25    0.25</time>
   <energy>
    <i name="alphaZ">    209.44792451 </i>
    <i name="ewald">  41768.09471280 </i>
    <i name="hartreedc"> -52447.00389037 </i>
    <i name="XCdc">    356.39483034 </i>
    <i name="pawpsdc">  10445.83132963 </i>
    <i name="pawaedc"> -11306.82975210 </i>
    <i name="eentropy">     -0.00217855 </i>
    <i name="bandstr">   -182.20386195 </i>
    <i name="atom">  11127.66112160 </i>
    <i name="e_fr_energy">    -28.60976410 </i>
    <i name="e_wo_entrp">    -28.60758555 </i>
    <i name="e_0_energy">    -28.60903791 </i>
   </energy>
  </scstep>
  <dipole>
   <v name="dipole">      0.00000000       0.00000000       0.00207427 </v>
   <i name="Tr[quadrupol]">   -216.73221457 </i>
   <i name="Echarged">      0.00000000 </i>
   <i name="Edipol_quadrupol">      0.00000000 </i>
   <i name="Eion">      0.00000000 </i>
  </dipole>
  <structure>
   <crystal>
    <varray name="basis" >
     <v>       3.63000011       0.00000000       0.00000000 </v>
     <v>       0.00000000       2.56679773       0.00000000 </v>
     <v>       0.00000000       0.00000000      23.98379207 </v>
    </varray>
    <i name="volume">    223.46840857 </i>
    <varray name="rec_basis" >
     <v>       0.27548208       0.00000000       0.00000000 </v>
     <v>       0.00000000       0.38959050       0.00000000 </v>
     <v>       0.00000000       0.00000000       0.04169482 </v>
    </varray>
   </crystal>
   <varray name="positions" >
    <v>       0.00000000       0.00000000       0.00000000 </v>
    <v>       0.50000000       0.50000000       0.05351109 </v>
    <v>       0.00000000       0.00000000       0.10654054 </v>
    <v>       0.50000000       0.50000000       0.16066421 </v>
    <v>       0.00000000       0.00000000       0.21454263 </v>
    <v>       0.50000000       0.50000000       0.26548431 </v>
    <v>       0.00000000       0.00000000       0.32165834 </v>
    <v>       0.50000000       0.50000000       0.36813352 </v>
   </varray>
  </structure>
  <varray name="forces" >
   <v>       0.00000000       0.00000000       0.60489892 </v>
   <v>       0.00000000       0.00000000      -0.26789816 </v>
   <v>       0.00000000       0.00000000      -0.00771935 </v>
   <v>       0.00000000       0.00000000      -0.18856837 </v>
   <v>       0.00000000       0.00000000      -0.14866033 </v>
   <v>       0.00000000       0.00000000       0.18508203 </v>
   <v>       0.00000000       0.00000000      -0.15565698 </v>
   <v>       0.00000000       0.00000000      -0.02147777 </v>
  </varray>
  <varray name="stress" >
   <v>     -45.88986951       0.00000000       0.00000000 </v>
   <v>       0.00000000     -40.23760887       0.00000000 </v>
   <v>       0.00000000       0.00000000     -20.45403457 </v>
  </varray>
  <energy>
   <i name="e_fr_energy">    -31.59952226 </i>
   <i name="e_wo_entrp">    -31.59734371 </i>
   <i name="e_0_energy">    -31.59879608 </i>
  </energy>
  <time name="totalsc">    3.06    3.13</time>
 </calculation>
 <calculation>
  <scstep>
   <time name="dav">    0.29    0.29</time>
   <time name="total">    0.36    0.36</time>
   <energy>
    <i name="alphaZ">    209.44792451 </i>
    <i name="ewald">  41601.36266091 </i>
    <i name="hartreedc"> -52280.52102011 </i>
    <i name="XCdc">    356.35463013 </i>
    <i name="pawpsdc">  10445.77197411 </i>
    <i name="pawaedc"> -11306.75528034 </i>
    <i name="eentropy">     -0.00234596 </i>
    <i name="bandstr">   -181.92901002 </i>
    <i name="atom">  11127.66112160 </i>
    <i name="e_fr_energy">    -28.60934518 </i>
    <i name="e_wo_entrp">    -28.60699922 </i>
    <i name="e_0_energy">    -28.60856320 </i>
   </energy>
  </scstep>
  <scstep>
   <time name="dav">    0.36    0.36</time>
   <time name="total">    0.43    0.43</time>
   <energy>
    <i name="e_fr_energy">    -28.61887326 </i>
    <i name="e_wo_entrp">    -28.61651498 </i>
    <i name="e_0_energy">    -28.61808717 </i>
   </energy>
  </scstep>
  <scstep>
   <time name="dav">    0.30    0.30</time>
   <time name="total">    0.37    0.38</time>
   <energy>
    <i name="e_fr_energy">    -28.61857969 </i>
    <i name="e_wo_entrp">    -28.61624782 </i>
    <i name="e_0_energy">    -28.61780240 </i>
   </energy>
  </scstep>
  <scstep>
   <time name="dav">    0.22    0.23</time>
   <time name="total">    0.25    0.25</time>
   <energy>
    <i name="alphaZ">    209.44792451 </i>
    <i name="ewald">  41601.36266091 </i>
    <i name="hartreedc"> -52280.53228441 </i>
    <i name="XCdc">    356.35636975 </i>
    <i name="pawpsdc">  10443.23648224 </i>
    <i name="pawaedc"> -11304.11169143 </i>
    <i name="eentropy">     -0.00231904 </i>
    <i name="bandstr">   -182.03672288 </i>
    <i name="atom">  11127.66112160 </i>
    <i name="e_fr_energy">    -28.61845877 </i>
    <i name="e_wo_entrp">    -28.61613973 </i>
    <i name="e_0_energy">    -28.61768575 </i>
   </energy>
  </scstep>
  <dipole>
   <v name="dipole">      0.00000000       0.00000000       0.00359545 </v>
   <i name="Tr[quadrupol]">   -216.73115425 </i>
   <i name="Echarged">      0.00000000 </i>
   <i name="Edipol_quadrupol">      0.00000000 </i>
   <i name="Eion">      0.00000000 </i>
  </dipole>
  <structure>
   <crystal>
    <varray name="basis" >
     <v>       3.63000011       0.00000000       0.00000000 </v>
     <v>       0.00000000       2.56679773       0.00000000 </v>
     <v>       0.00000000       0.00000000      23.98379207 </v>
    </varray>
    <i name="volume">    223.46840857 </i>
    <varray name="rec_basis" >
     <v>       0.27548208       0.00000000       0.00000000 </v>
     <v>       0.00000000       0.38959050       0.00000000 </v>
     <v>       0.00000000       0.00000000       0.04169482 </v>
    </varray>
   </crystal>
   <varray name="positions" >
    <v>       0.00000000       0.00000000       0.00000000 </v>
    <v>       0.50000000       0.50000000       0.05351109 </v>
    <v>       0.00000000       0.00000000       0.10648082 </v>
    <v>       0.50000000       0.50000000       0.16045861 </v>
    <v>       0.00000000       0.00000000       0.21452281 </v>
    <v>       0.50000000       0.50000000       0.26641374 </v>
    <v>       0.00000000       0.00000000       0.32203968 </v>
    <v>       0.50000000       0.50000000       0.36891736 </v>
   </varray>
  </structure>
  <varray name="forces" >
   <v>       0.00000000       0.00000000       0.59791963 </v>
   <v>       0.00000000       0.00000000      -0.28293035 </v>
   <v>       0.00000000       0.00000000       0.00145951 </v>
   <v>       0.00000000       0.00000000      -0.09810916 </v>
   <v>       0.00000000       0.00000000      -0.09394433 </v>
   <v>       0.00000000       0.00000000       0.03985212 </v>
   <v>       0.00000000       0.00000000      -0.13928041 </v>
   <v>       0.00000000       0.00000000      -0.02496702 </v>
  </varray>
  <varray name="stress" >
   <v>     -39.32417840       0.00000000       0.00000000 </v>
   <v>       0.00000000     -33.09496941       0.00000000 </v>
   <v>       0.00000000       0.00000000     -14.14996680 </v>
  </varray>
  <energy>
   <i name="e_fr_energy">    -31.60145637 </i>
   <i name="e_wo_entrp">    -31.59913733 </i>
   <i name="e_0_energy">    -31.60068336 </i>
  </energy>
  <time name="totalsc">    1.83    1.91</time>
 </calculation>
 <calculation>
  <scstep>
   <time name="dav">    0.28    0.28</time>
   <time name="total">    0.35    0.36</time>
   <energy>
    <i name="alphaZ">    209.44792451 </i>
    <i name="ewald">  41722.32280976 </i>
    <i name="hartreedc"> -52401.40846894 </i>
    <i name="XCdc">    356.38522375 </i>
    <i name="pawpsdc">  10442.00019981 </i>
    <i name="pawaedc"> -11302.84907100 </i>
    <i name="eentropy">     -0.00247602 </i>
    <i name="bandstr">   -182.16937336 </i>
    <i name="atom">  11127.66112160 </i>
    <i name="e_fr_energy">    -28.61210990 </i>
    <i name="e_wo_entrp">    -28.60963388 </i>
    <i name="e_0_energy">    -28.61128456 </i>
   </energy>
  </scstep>
  <scstep>
   <time name="dav">    0.36    0.36</time>
   <time name="total">    0.43    0.44</time>
   <energy>
    <i name="e_fr_energy">    -28.61729670 </i>
    <i name="e_wo_entrp">    -28.61485026 </i>
    <i name="e_0_energy">    -28.61648122 </i>
   </energy>
  </scstep>
  <scstep>
   <time name="dav">    0.28    0.28</time>
   <time name="total">    0.30    0.30</time>
   <energy>
    <i name="alphaZ">    209.44792451 </i>
    <i name="ewald">  41722.32280976 </i>
    <i name="hartreedc"> -52401.63031221 </i>
    <i name="XCdc">    356.38224776 </i>
    <i name="pawpsdc">  10442.83984399 </i>
    <i name="pawaedc"> -11303.69114903 </i>
    <i name="eentropy">     -0.00245201 </i>
    <i name="bandstr">   -181.94720306 </i>
    <i name="atom">  11127.66112160 </i>
    <i name="e_fr_energy">    -28.61716869 </i>
    <i name="e_wo_entrp">    -28.61471668 </i>
    <i name="e_0_energy">    -28.61635136 </i>
   </energy>
  </scstep>
  <dipole>
   <v name="dipole">      0.00000000       0.00000000       0.00237514 </v>
   <i name="Tr[quadrupol]">   -216.73721893 </i>
   <i name="Echarged">      0.00000000 </i>
   <i name="Edipol_quadrupol">      0.00000000 </i>
   <i name="Eion">      0.00000000 </i>
  </dipole>
  <structure>
   <crystal>
    <varray name="basis" >
     <v>       3.63000011       0.00000000       0.00000000 </v>
     <v>       0.00000000       2.56679773       0.00000000 </v>
     <v>       0.00000000       0.00000000      23.98379207 </v>
    </varray>
    <i name="volume">    223.46840857 </i>
    <varray name="rec_basis" >
     <v>       0.27548208       0.00000000       0.00000000 </v>
     <v>       0.00000000       0.38959050       0.00000000 </v>
     <v>       0.00000000       0.00000000       0.04169482 </v>
    </varray>
   </crystal>
   <varray name="positions" >
    <v>       0.00000000       0.00000000       0.00000000 </v>
    <v>       0.50000000       0.50000000       0.05351109 </v>
    <v>       0.00000000       0.00000000       0.10651356 </v>
    <v>       0.50000000       0.50000000       0.16019990 </v>
    <v>       0.00000000       0.00000000       0.21419360 </v>
    <v>       0.50000000       0.50000000       0.26612952 </v>
    <v>       0.00000000       0.00000000       0.32136257 </v>
    <v>       0.50000000       0.50000000       0.36846670 </v>
   </varray>
  </structure>
  <varray name="forces" >
   <v>       0.00000000       0.00000000       0.58945231 </v>
   <v>       0.00000000       0.00000000      -0.30410061 </v>
   <v>       0.00000000       0.00000000      -0.04217172 </v>
   <v>       0.00000000       0.00000000      -0.09208984 </v>
   <v>       0.00000000       0.00000000      -0.09912856 </v>
   <v>       0.00000000       0.00000000       0.03819839 </v>
   <v>       0.00000000       0.00000000      -0.08000335 </v>
   <v>       0.00000000       0.00000000      -0.01015663 </v>
  </varray>
  <varray name="stress" >
   <v>     -40.72928122       0.00000000       0.00000000 </v>
   <v>       0.00000000     -34.70628483       0.00000000 </v>
   <v>       0.00000000       0.00000000     -14.98445032 </v>
  </varray>
  <energy>
   <i name="e_fr_energy">    -31.60460393 </i>
   <i name="e_wo_entrp">    -31.60215192 </i>
   <i name="e_0_energy">    -31.60378659 </i>
  </energy>
  <time name="totalsc">    1.51    1.55</time>
 </calculation>
 <calculation>
  <scstep>
   <time name="dav">    0.28    0.28</time>
   <time name="total">    0.36    0.36</time>
   <energy>
    <i name="alphaZ">    209.44792451 </i>
    <i name="ewald">  41984.35971849 </i>
    <i name="hartreedc"> -52663.38187363 </i>
    <i name="XCdc">    356.45204856 </i>
    <i name="pawpsdc">  10443.00303090 </i>
    <i name="pawaedc"> -11303.87535310 </i>
    <i name="eentropy">     -0.00291077 </i>
    <i name="bandstr">   -182.25393770 </i>
    <i name="atom">  11127.66112160 </i>
    <i name="e_fr_energy">    -28.59023115 </i>
    <i name="e_wo_entrp">    -28.58732038 </i>
    <i name="e_0_energy">    -28.58926089 </i>
   </energy>
  </scstep>
  <scstep>
   <time name="dav">    0.38    0.39</time>
   <time name="total">    0.46    0.46</time>
   <energy>
    <i name="e_fr_energy">    -28.61491020 </i>
    <i name="e_wo_entrp">    -28.61209481 </i>
    <i name="e_0_energy">    -28.61397174 </i>
   </energy>
  </scstep>
  <scstep>
   <time name="dav">    0.33    0.34</time>
   <time name="total">    0.41    0.41</time>
   <energy>
    <i name="e_fr_energy">    -28.61359439 </i>
    <i name="e_wo_entrp">    -28.61071464 </i>
    <i name="e_0_energy">    -28.61263447 </i>
   </energy>
  </scstep>
  <scstep>
   <time name="dav">    0.30    0.30</time>
   <time name="total">    0.38    0.38</time>
   <energy>
    <i name="e_fr_energy">    -28.61327302 </i>
    <i name="e_wo_entrp">    -28.61040409 </i>
    <i name="e_0_energy">    -28.61231671 </i>
   </energy>
  </scstep>
  <scstep>
   <time name="dav">    0.42    0.42</time>
   <time name="total">    0.49    0.50</time>
   <energy>
    <i name="e_fr_energy">    -28.61236302 </i>
    <i name="e_wo_entrp">    -28.60945462 </i>
    <i name="e_0_energy">    -28.61139355 </i>
   </energy>
  </scstep>
  <scstep>
   <time name="dav">    0.33    0.33</time>
   <time name="total">    0.40    0.41</time>
   <energy>
    <i name="e_fr_energy">    -28.61211165 </i>
    <i name="e_wo_entrp">    -28.60917933 </i>
    <i name="e_0_energy">    -28.61113421 </i>
   </energy>
  </scstep>
  <scstep>
   <time name="dav">    0.20    0.21</time>
   <time name="total">    0.23    0.23</time>
   <energy>
    <i name="alphaZ">    209.44792451 </i>
    <i name="ewald">  41984.35971849 </i>
    <i name="hartreedc"> -52662.80937956 </i>
    <i name="XCdc">    356.42761611 </i>
    <i name="pawpsdc">  10450.51777979 </i>
    <i name="pawaedc"> -11311.59065615 </i>
    <i name="eentropy">     -0.00292304 </i>
    <i name="bandstr">   -182.62331269 </i>
    <i name="atom">  11127.66112160 </i>
    <i name="e_fr_energy">    -28.61211096 </i>
    <i name="e_wo_entrp">    -28.60918791 </i>
    <i name="e_0_energy">    -28.61113661 </i>
   </energy>
  </scstep>
  <dipole>
   <v name="dipole">      0.00000000       0.00000000       0.00113682 </v>
   <i name="Tr[quadrupol]">   -216.73022334 </i>
   <i name="Echarged">      0.00000000 </i>
   <i name="Edipol_quadrupol">      0.00000000 </i>
   <i name="Eion">      0.00000000 </i>
  </dipole>
  <structure>
   <crystal>
    <varray name="basis" >
     <v>       3.63000011       0.00000000       0.00000000 </v>
     <v>       0.00000000       2.56679773       0.00000000 </v>
     <v>       0.00000000       0.00000000      23.98379207 </v>
    </varray>
    <i name="volume">    223.46840857 </i>
    <varray name="rec_basis" >
     <v>       0.27548208       0.00000000       0.00000000 </v>
     <v>       0.00000000       0.38959050       0.00000000 </v>
     <v>       0.00000000       0.00000000       0.04169482 </v>
    </varray>
   </crystal>
   <varray name="positions" >
    <v>       0.00000000       0.00000000       0.00000000 </v>
    <v>       0.50000000       0.50000000       0.05351109 </v>
    <v>       0.00000000       0.00000000       0.10658436 </v>
    <v>       0.50000000       0.50000000       0.15964050 </v>
    <v>       0.00000000       0.00000000       0.21348175 </v>
    <v>       0.50000000       0.50000000       0.26551494 </v>
    <v>       0.00000000       0.00000000       0.31989848 </v>
    <v>       0.50000000       0.50000000       0.36749225 </v>
   </varray>
  </structure>
  <varray name="forces" >
   <v>       0.00000000       0.00000000       0.59292170 </v>
   <v>       0.00000000       0.00000000      -0.32103350 </v>
   <v>       0.00000000       0.00000000      -0.09191335 </v>
   <v>       0.00000000       0.00000000      -0.04670513 </v>
   <v>       0.00000000       0.00000000      -0.08936459 </v>
   <v>       0.00000000       0.00000000      -0.01177670 </v>
   <v>       0.00000000       0.00000000       0.00285314 </v>
   <v>       0.00000000       0.00000000      -0.03498157 </v>
  </varray>
  <varray name="stress" >
   <v>     -46.02757156       0.00000000       0.00000000 </v>
   <v>       0.00000000     -40.31880181       0.00000000 </v>
   <v>       0.00000000       0.00000000     -18.00075265 </v>
  </varray>
  <energy>
   <i name="e_fr_energy">    -31.60919228 </i>
   <i name="e_wo_entrp">    -31.60626924 </i>
   <i name="e_0_energy">    -31.60821794 </i>
  </energy>
  <time name="totalsc">    3.14    3.21</time>
 </calculation>
 <calculation>
  <scstep>
   <time name="dav">    0.29    0.29</time>
   <time name="total">    0.36    0.36</time>
   <energy>
    <i name="alphaZ">    209.44792451 </i>
    <i name="ewald">  42510.42499797 </i>
    <i name="hartreedc"> -53188.24657486 </i>
    <i name="XCdc">    356.57219897 </i>
    <i name="pawpsdc">  10450.51555010 </i>
    <i name="pawaedc"> -11311.57384157 </i>
    <i name="eentropy">     -0.00409234 </i>
    <i name="bandstr">   -183.28957809 </i>
    <i name="atom">  11127.66112160 </i>
    <i name="e_fr_energy">    -28.49229372 </i>
    <i name="e_wo_entrp">    -28.48820138 </i>
    <i name="e_0_energy">    -28.49092961 </i>
   </energy>
  </scstep>
  <scstep>
   <time name="dav">    0.40    0.40</time>
   <time name="total">    0.48    0.48</time>
   <energy>
    <i name="e_fr_energy">    -28.60274007 </i>
    <i name="e_wo_entrp">    -28.59897465 </i>
    <i name="e_0_energy">    -28.60148493 </i>
   </energy>
  </scstep>
  <scstep>
   <time name="dav">    0.36    0.37</time>
   <time name="total">    0.44    0.44</time>
   <energy>
    <i name="e_fr_energy">    -28.59570331 </i>
    <i name="e_wo_entrp">    -28.59168635 </i>
    <i name="e_0_energy">    -28.59436432 </i>
   </energy>
  </scstep>
  <scstep>
   <time name="dav">    0.35    0.35</time>
   <time name="total">    0.42    0.43</time>
   <energy>
    <i name="e_fr_energy">    -28.59503661 </i>
    <i name="e_wo_entrp">    -28.59105088 </i>
    <i name="e_0_energy">    -28.59370803 </i>
   </energy>
  </scstep>
  <scstep>
   <time name="dav">    0.30    0.30</time>
   <time name="total">    0.37    0.38</time>
   <energy>
    <i name="e_fr_energy">    -28.59332239 </i>
    <i name="e_wo_entrp">    -28.58936507 </i>
    <i name="e_0_energy">    -28.59200328 </i>
   </energy>
  </scstep>
  <scstep>
   <time name="dav">    0.42    0.43</time>
   <time name="total">    0.50    0.50</time>
   <energy>
    <i name="e_fr_energy">    -28.59168115 </i>
    <i name="e_wo_entrp">    -28.58757491 </i>
    <i name="e_0_energy">    -28.59031240 </i>
   </energy>
  </scstep>
  <scstep>
   <time name="dav">    0.30    0.30</time>
   <time name="total">    0.32    0.32</time>
   <energy>
    <i name="alphaZ">    209.44792451 </i>
    <i name="ewald">  42510.42499797 </i>
    <i name="hartreedc"> -53187.39347223 </i>
    <i name="XCdc">    356.51699914 </i>
    <i name="pawpsdc">  10465.12436950 </i>
    <i name="pawaedc"> -11326.46733533 </i>
    <i name="eentropy">     -0.00406853 </i>
    <i name="bandstr">   -183.90225558 </i>
    <i name="atom">  11127.66112160 </i>
    <i name="e_fr_energy">    -28.59171896 </i>
    <i name="e_wo_entrp">    -28.58765043 </i>
    <i name="e_0_energy">    -28.59036278 </i>
   </energy>
  </scstep>
  <dipole>
   <v name="dipole">      0.00000000       0.00000000      -0.00104834 </v>
   <i name="Tr[quadrupol]">   -216.72609129 </i>
   <i name="Echarged">      0.00000000 </i>
   <i name="Edipol_quadrupol">      0.00000000 </i>
   <i name="Eion">      0.00000000 </i>
  </dipole>
  <structure>
   <crystal>
    <varray name="basis" >
     <v>       3.63000011       0.00000000       0.00000000 </v>
     <v>       0.00000000       2.56679773       0.00000000 </v>
     <v>       0.00000000       0.00000000      23.98379207 </v>
    </varray>
    <i name="volume">    223.46840857 </i>
    <varray name="rec_basis" >
     <v>       0.27548208       0.00000000       0.00000000 </v>
     <v>       0.00000000       0.38959050       0.00000000 </v>
     <v>       0.00000000       0.00000000       0.04169482 </v>
    </varray>
   </crystal>
   <varray name="positions" >
    <v>       0.00000000       0.00000000       0.00000000 </v>
    <v>       0.50000000       0.50000000       0.05351109 </v>
    <v>       0.00000000       0.00000000       0.10672597 </v>
    <v>       0.50000000       0.50000000       0.15852171 </v>
    <v>       0.00000000       0.00000000       0.21205806 </v>
    <v>       0.50000000       0.50000000       0.26428579 </v>
    <v>       0.00000000       0.00000000       0.31697030 </v>
    <v>       0.50000000       0.50000000       0.36554335 </v>
   </varray>
  </structure>
  <varray name="forces" >
   <v>       0.00000000       0.00000000       0.58190979 </v>
   <v>       0.00000000       0.00000000      -0.38855517 </v>
   <v>       0.00000000       0.00000000      -0.23209493 </v>
   <v>       0.00000000       0.00000000       0.04951794 </v>
   <v>       0.00000000       0.00000000      -0.05850790 </v>
   <v>       0.00000000       0.00000000      -0.12659725 </v>
   <v>       0.00000000       0.00000000       0.18366538 </v>
   <v>       0.00000000       0.00000000      -0.00933786 </v>
  </varray>
  <varray name="stress" >
   <v>     -44.24720182       0.00000000       0.00000000 </v>
   <v>       0.00000000     -39.19838125       0.00000000 </v>
   <v>       0.00000000       0.00000000     -11.73170217 </v>
  </varray>
  <energy>
   <i name="e_fr_energy">    -31.60832765 </i>
   <i name="e_wo_entrp">    -31.60425912 </i>
   <i name="e_0_energy">    -31.60697148 </i>
  </energy>
  <time name="totalsc">    3.31    3.36</time>
 </calculation>
 <calculation>
  <scstep>
   <time name="dav">    0.28    0.28</time>
   <time name="total">    0.35    0.36</time>
   <energy>
    <i name="alphaZ">    209.44792451 </i>
    <i name="ewald">  42191.76835413 </i>
    <i name="hartreedc"> -52869.35440080 </i>
    <i name="XCdc">    356.44808325 </i>
    <i name="pawpsdc">  10465.04303696 </i>
    <i name="pawaedc"> -11326.37511883 </i>
    <i name="eentropy">     -0.00332626 </i>
    <i name="bandstr">   -183.20683527 </i>
    <i name="atom">  11127.66112160 </i>
    <i name="e_fr_energy">    -28.57116073 </i>
    <i name="e_wo_entrp">    -28.56783446 </i>
    <i name="e_0_energy">    -28.57005197 </i>
   </energy>
  </scstep>
  <scstep>
   <time name="dav">    0.37    0.37</time>
   <time name="total">    0.44    0.45</time>
   <energy>
    <i name="e_fr_energy">    -28.60930702 </i>
    <i name="e_wo_entrp">    -28.60557401 </i>
    <i name="e_0_energy">    -28.60806269 </i>
   </energy>
  </scstep>
  <scstep>
   <time name="dav">    0.28    0.28</time>
   <time name="total">    0.35    0.36</time>
   <energy>
    <i name="e_fr_energy">    -28.60773759 </i>
    <i name="e_wo_entrp">    -28.60423213 </i>
    <i name="e_0_energy">    -28.60656911 </i>
   </energy>
  </scstep>
  <scstep>
   <time name="dav">    0.30    0.30</time>
   <time name="total">    0.37    0.38</time>
   <energy>
    <i name="e_fr_energy">    -28.60719008 </i>
    <i name="e_wo_entrp">    -28.60371886 </i>
    <i name="e_0_energy">    -28.60603301 </i>
   </energy>
  </scstep>
  <scstep>
   <time name="dav">    0.36    0.36</time>
   <time name="total">    0.43    0.44</time>
   <energy>
    <i name="e_fr_energy">    -28.60580433 </i>
    <i name="e_wo_entrp">    -28.60245033 </i>
    <i name="e_0_energy">    -28.60468633 </i>
   </energy>
  </scstep>
  <scstep>
   <time name="dav">    0.21    0.21</time>
   <time name="total">    0.23    0.24</time>
   <energy>
    <i name="alphaZ">    209.44792451 </i>
    <i name="ewald">  42191.76835413 </i>
    <i name="hartreedc"> -52869.24281720 </i>
    <i name="XCdc">    356.46158023 </i>
    <i name="pawpsdc">  10456.53248157 </i>
    <i name="pawaedc"> -11317.71080913 </i>
    <i name="eentropy">     -0.00335726 </i>
    <i name="bandstr">   -183.52017996 </i>
    <i name="atom">  11127.66112160 </i>
    <i name="e_fr_energy">    -28.60570152 </i>
    <i name="e_wo_entrp">    -28.60234425 </i>
    <i name="e_0_energy">    -28.60458243 </i>
   </energy>
  </scstep>
  <dipole>
   <v name="dipole">      0.00000000       0.00000000       0.00136499 </v>
   <i name="Tr[quadrupol]">   -216.71505542 </i>
   <i name="Echarged">      0.00000000 </i>
   <i name="Edipol_quadrupol">      0.00000000 </i>
   <i name="Eion">      0.00000000 </i>
  </dipole>
  <structure>
   <crystal>
    <varray name="basis" >
     <v>       3.63000011       0.00000000       0.00000000 </v>
     <v>       0.00000000       2.56679773       0.00000000 </v>
     <v>       0.00000000       0.00000000      23.98379207 </v>
    </varray>
    <i name="volume">    223.46840857 </i>
    <varray name="rec_basis" >
     <v>       0.27548208       0.00000000       0.00000000 </v>
     <v>       0.00000000       0.38959050       0.00000000 </v>
     <v>       0.00000000       0.00000000       0.04169482 </v>
    </varray>
   </crystal>
   <varray name="positions" >
    <v>       0.00000000       0.00000000       0.00000000 </v>
    <v>       0.50000000       0.50000000       0.05351109 </v>
    <v>       0.00000000       0.00000000       0.10664028 </v>
    <v>       0.50000000       0.50000000       0.15919873 </v>
    <v>       0.00000000       0.00000000       0.21291959 </v>
    <v>       0.50000000       0.50000000       0.26502959 </v>
    <v>       0.00000000       0.00000000       0.31874225 </v>
    <v>       0.50000000       0.50000000       0.36672270 </v>
   </varray>
  </structure>
  <varray name="forces" >
   <v>       0.00000000       0.00000000       0.58546203 </v>
   <v>       0.00000000       0.00000000      -0.35521285 </v>
   <v>       0.00000000       0.00000000      -0.15395064 </v>
   <v>       0.00000000       0.00000000      -0.01746260 </v>
   <v>       0.00000000       0.00000000      -0.07557989 </v>
   <v>       0.00000000       0.00000000      -0.04787921 </v>
   <v>       0.00000000       0.00000000       0.08523505 </v>
   <v>       0.00000000       0.00000000      -0.02061190 </v>
  </varray>
  <varray name="stress" >
   <v>     -43.32801343       0.00000000       0.00000000 </v>
   <v>       0.00000000     -37.87821302       0.00000000 </v>
   <v>       0.00000000       0.00000000     -13.43289416 </v>
  </varray>
  <energy>
   <i name="e_fr_energy">    -31.61045434 </i>
   <i name="e_wo_entrp">    -31.60709707 </i>
   <i name="e_0_energy">    -31.60933525 </i>
  </energy>
  <time name="totalsc">    2.61    2.68</time>
 </calculation>
 <calculation>
  <scstep>
   <time name="dav">    0.28    0.29</time>
   <time name="total">    0.36    0.36</time>
   <energy>
    <i name="alphaZ">    209.44792451 </i>
    <i name="ewald">  42298.32500093 </i>
    <i name="hartreedc"> -52975.68344040 </i>
    <i name="XCdc">    356.49683826 </i>
    <i name="pawpsdc">  10456.40695520 </i>
    <i name="pawaedc"> -11317.58525330 </i>
    <i name="eentropy">     -0.00362862 </i>
    <i name="bandstr">   -183.66241082 </i>
    <i name="atom">  11127.66112160 </i>
    <i name="e_fr_energy">    -28.59689264 </i>
    <i name="e_wo_entrp">    -28.59326402 </i>
    <i name="e_0_energy">    -28.59568310 </i>
   </energy>
  </scstep>
  <scstep>
   <time name="dav">    0.36    0.37</time>
   <time name="total">    0.44    0.44</time>
   <energy>
    <i name="e_fr_energy">    -28.60604536 </i>
    <i name="e_wo_entrp">    -28.60242819 </i>
    <i name="e_0_energy">    -28.60483964 </i>
   </energy>
  </scstep>
  <scstep>
   <time name="dav">    0.28    0.28</time>
   <time name="total">    0.36    0.36</time>
   <energy>
    <i name="e_fr_energy">    -28.60568262 </i>
    <i name="e_wo_entrp">    -28.60204939 </i>
    <i name="e_0_energy">    -28.60447154 </i>
   </energy>
  </scstep>
  <scstep>
   <time name="dav">    0.22    0.22</time>
   <time name="total">    0.24    0.24</time>
   <energy>
    <i name="alphaZ">    209.44792451 </i>
    <i name="ewald">  42298.32500093 </i>
    <i name="hartreedc"> -52975.54518700 </i>
    <i name="XCdc">    356.47770105 </i>
    <i name="pawpsdc">  10458.21545723 </i>
    <i name="pawaedc"> -11319.30390197 </i>
    <i name="eentropy">     -0.00361296 </i>
    <i name="bandstr">   -183.88006303 </i>
    <i name="atom">  11127.66112160 </i>
    <i name="e_fr_energy">    -28.60555966 </i>
    <i name="e_wo_entrp">    -28.60194669 </i>
    <i name="e_0_energy">    -28.60435534 </i>
   </energy>
  </scstep>
  <dipole>
[...]
       <r>     6.2074     0.6193    50.6267 </r>
       <r>     6.2796     1.2524    50.7171 </r>
       <r>     6.3518     1.9699    50.8593 </r>
       <r>     6.4239     2.7223    51.0557 </r>
       <r>     6.4961     3.4779    51.3067 </r>
       <r>     6.5683     3.8975    51.5880 </r>
       <r>     6.6405     3.5848    51.8468 </r>
       <r>     6.7126     2.6647    52.0391 </r>
       <r>     6.7848     1.7867    52.1680 </r>
       <r>     6.8570     1.3804    52.2677 </r>
       <r>     6.9292     1.2147    52.3554 </r>
       <r>     7.0013     0.8904    52.4196 </r>
       <r>     7.0735     0.4074    52.4490 </r>
       <r>     7.1457     0.0160    52.4502 </r>
       <r>     7.2179    -0.1696    52.4379 </r>
       <r>     7.2900    -0.1672    52.4259 </r>
       <r>     7.3622     0.0943    52.4327 </r>
       <r>     7.4344     0.7721    52.4884 </r>
       <r>     7.5065     1.8422    52.6214 </r>
       <r>     7.5787     2.9498    52.8343 </r>
       <r>     7.6509     3.7284    53.1033 </r>
       <r>     7.7231     4.2231    53.4081 </r>
       <r>     7.7952     4.6612    53.7446 </r>
       <r>     7.8674     4.8712    54.0961 </r>
       <r>     7.9396     4.3927    54.4132 </r>
       <r>     8.0118     3.1535    54.6408 </r>
       <r>     8.0839     1.7128    54.7644 </r>
       <r>     8.1561     0.7884    54.8213 </r>
       <r>     8.2283     0.6152    54.8657 </r>
       <r>     8.3005     0.8210    54.9249 </r>
       <r>     8.3726     0.9179    54.9912 </r>
       <r>     8.4448     0.7416    55.0447 </r>
       <r>     8.5170     0.4148    55.0746 </r>
       <r>     8.5892     0.1974    55.0889 </r>
       <r>     8.6613     0.4375    55.1205 </r>
       <r>     8.7335     1.2945    55.2139 </r>
       <r>     8.8057     2.3213    55.3814 </r>
       <r>     8.8779     2.6726    55.5743 </r>
       <r>     8.9500     2.0076    55.7192 </r>
       <r>     9.0222     0.8907    55.7835 </r>
       <r>     9.0944     0.1171    55.7920 </r>
       <r>     9.1666    -0.0064    55.7915 </r>
       <r>     9.2387     0.3368    55.8158 </r>
       <r>     9.3109     0.7596    55.8706 </r>
       <r>     9.3831     0.9008    55.9357 </r>
       <r>     9.4552     0.6693    55.9840 </r>
       <r>     9.5274     0.2923    56.0051 </r>
       <r>     9.5996     0.0339    56.0075 </r>
       <r>     9.6718    -0.0468    56.0041 </r>
       <r>     9.7439    -0.0370    56.0015 </r>
       <r>     9.8161    -0.0151    56.0004 </r>
       <r>     9.8883    -0.0041    56.0001 </r>
       <r>     9.9605    -0.0008    56.0000 </r>
       <r>    10.0326    -0.0001    56.0000 </r>
       <r>    10.1048    -0.0000    56.0000 </r>
       <r>    10.1770    -0.0000    56.0000 </r>
       <r>    10.2492    -0.0000    56.0000 </r>
       <r>    10.3213    -0.0000    56.0000 </r>
       <r>    10.3935    -0.0000    56.0000 </r>
       <r>    10.4657    -0.0000    56.0000 </r>
       <r>    10.5379    -0.0000    56.0000 </r>
       <r>    10.6100    -0.0000    56.0000 </r>
       <r>    10.6822     0.0000    56.0000 </r>
       <r>    10.7544     0.0000    56.0000 </r>
       <r>    10.8266     0.0000    56.0000 </r>
       <r>    10.8987     0.0000    56.0000 </r>
       <r>    10.9709     0.0000    56.0000 </r>
       <r>    11.0431     0.0000    56.0000 </r>
       <r>    11.1152     0.0000    56.0000 </r>
       <r>    11.1874     0.0000    56.0000 </r>
       <r>    11.2596     0.0000    56.0000 </r>
       <r>    11.3318     0.0000    56.0000 </r>
      </set>
      <set comment="spin 2">
       <r>   -10.3204     0.0000     0.0000 </r>
       <r>   -10.2482     0.0000     0.0000 </r>
       <r>   -10.1761     0.0000     0.0000 </r>
       <r>   -10.1039     0.0000     0.0000 </r>
       <r>   -10.0317     0.0000     0.0000 </r>
       <r>    -9.9596    -0.0000    -0.0000 </r>
       <r>    -9.8874    -0.0000    -0.0000 </r>
       <r>    -9.8152    -0.0000    -0.0000 </r>
       <r>    -9.7430    -0.0000    -0.0000 </r>
       <r>    -9.6709    -0.0000    -0.0000 </r>
       <r>    -9.5987    -0.0000    -0.0000 </r>
       <r>    -9.5265    -0.0000    -0.0000 </r>
       <r>    -9.4543    -0.0000    -0.0000 </r>
       <r>    -9.3822    -0.0000    -0.0000 </r>
       <r>    -9.3100    -0.0000    -0.0000 </r>
       <r>    -9.2378    -0.0000    -0.0000 </r>
       <r>    -9.1656    -0.0000    -0.0000 </r>
       <r>    -9.0935    -0.0000    -0.0000 </r>
       <r>    -9.0213    -0.0000    -0.0000 </r>
       <r>    -8.9491    -0.0001    -0.0000 </r>
       <r>    -8.8769    -0.0004    -0.0000 </r>
       <r>    -8.8048    -0.0021    -0.0002 </r>
       <r>    -8.7326    -0.0075    -0.0007 </r>
       <r>    -8.6604    -0.0185    -0.0021 </r>
       <r>    -8.5882    -0.0234    -0.0037 </r>
       <r>    -8.5161     0.0170    -0.0025 </r>
       <r>    -8.4439     0.1463     0.0080 </r>
       <r>    -8.3717     0.3361     0.0323 </r>
       <r>    -8.2996     0.4575     0.0653 </r>
       <r>    -8.2274     0.4043     0.0945 </r>
       <r>    -8.1552     0.2248     0.1107 </r>
       <r>    -8.0830     0.0597     0.1150 </r>
       <r>    -8.0109    -0.0150     0.1139 </r>
       <r>    -7.9387    -0.0229     0.1123 </r>
       <r>    -7.8665    -0.0121     0.1114 </r>
       <r>    -7.7943    -0.0059     0.1110 </r>
       <r>    -7.7222    -0.0089     0.1103 </r>
       <r>    -7.6500    -0.0195     0.1089 </r>
       <r>    -7.5778    -0.0241     0.1072 </r>
       <r>    -7.5056     0.0155     0.1083 </r>
       <r>    -7.4335     0.1358     0.1181 </r>
       <r>    -7.3613     0.3028     0.1400 </r>
       <r>    -7.2891     0.4210     0.1704 </r>
       <r>    -7.2169     0.4811     0.2051 </r>
       <r>    -7.1448     0.6053     0.2488 </r>
       <r>    -7.0726     0.8170     0.3077 </r>
       <r>    -7.0004     0.9062     0.3731 </r>
       <r>    -6.9282     0.7031     0.4239 </r>
       <r>    -6.8561     0.3362     0.4481 </r>
       <r>    -6.7839     0.0572     0.4523 </r>
       <r>    -6.7117    -0.0441     0.4491 </r>
       <r>    -6.6395    -0.0429     0.4460 </r>
       <r>    -6.5674    -0.0275     0.4440 </r>
       <r>    -6.4952    -0.0332     0.4416 </r>
       <r>    -6.4230    -0.0508     0.4379 </r>
       <r>    -6.3509    -0.0217     0.4364 </r>
       <r>    -6.2787     0.1465     0.4470 </r>
       <r>    -6.2065     0.4688     0.4808 </r>
       <r>    -6.1343     0.7940     0.5381 </r>
       <r>    -6.0622     0.9754     0.6085 </r>
       <r>    -5.9900     1.0979     0.6877 </r>
       <r>    -5.9178     1.2877     0.7807 </r>
       <r>    -5.8456     1.3771     0.8801 </r>
       <r>    -5.7735     1.1100     0.9602 </r>
       <r>    -5.7013     0.5806     1.0021 </r>
       <r>    -5.6291     0.1323     1.0116 </r>
       <r>    -5.5569    -0.0653     1.0069 </r>
       <r>    -5.4848    -0.1078     0.9991 </r>
       <r>    -5.4126    -0.1401     0.9890 </r>
       <r>    -5.3404    -0.1703     0.9767 </r>
       <r>    -5.2682     0.0102     0.9775 </r>
       <r>    -5.1961     0.7265     1.0299 </r>
       <r>    -5.1239     2.0036     1.1745 </r>
       <r>    -5.0517     3.1933     1.4050 </r>
       <r>    -4.9795     3.3947     1.6500 </r>
       <r>    -4.9074     2.4326     1.8256 </r>
       <r>    -4.8352     1.0667     1.9026 </r>
       <r>    -4.7630     0.1092     1.9104 </r>
       <r>    -4.6909    -0.2801     1.8902 </r>
       <r>    -4.6187    -0.3367     1.8659 </r>
       <r>    -4.5465    -0.0865     1.8597 </r>
       <r>    -4.4743     0.7780     1.9158 </r>
       <r>    -4.4022     2.3552     2.0858 </r>
       <r>    -4.3300     3.9511     2.3710 </r>
       <r>    -4.2578     4.4534     2.6924 </r>
       <r>    -4.1856     3.5413     2.9480 </r>
       <r>    -4.1135     2.1392     3.1024 </r>
       <r>    -4.0413     1.3914     3.2028 </r>
       <r>    -3.9691     1.5559     3.3151 </r>
       <r>    -3.8969     2.1554     3.4707 </r>
       <r>    -3.8248     2.8374     3.6755 </r>
       <r>    -3.7526     3.6722     3.9405 </r>
       <r>    -3.6804     4.7252     4.2815 </r>
       <r>    -3.6082     5.7543     4.6968 </r>
       <r>    -3.5361     6.5115     5.1668 </r>
       <r>    -3.4639     7.0503     5.6757 </r>
       <r>    -3.3917     7.5011     6.2170 </r>
       <r>    -3.3195     7.9379     6.7899 </r>
       <r>    -3.2474     8.5487     7.4069 </r>
       <r>    -3.1752     9.2451     8.0742 </r>
       <r>    -3.1030     9.2499     8.7418 </r>
       <r>    -3.0309     8.0234     9.3209 </r>
       <r>    -2.9587     6.4227     9.7844 </r>
       <r>    -2.8865     5.9840    10.2163 </r>
       <r>    -2.8143     7.0734    10.7268 </r>
       <r>    -2.7422     8.5861    11.3465 </r>
       <r>    -2.6700     9.5846    12.0383 </r>
       <r>    -2.5978    10.2991    12.7816 </r>
       <r>    -2.5256    11.1246    13.5845 </r>
       <r>    -2.4535    11.6963    14.4287 </r>
       <r>    -2.3813    11.7938    15.2799 </r>
       <r>    -2.3091    12.2511    16.1641 </r>
       <r>    -2.2369    13.8024    17.1603 </r>
       <r>    -2.1648    15.6180    18.2875 </r>
       <r>    -2.0926    16.1974    19.4565 </r>
       <r>    -2.0204    15.3232    20.5625 </r>
       <r>    -1.9482    14.1131    21.5810 </r>
       <r>    -1.8761    13.3925    22.5476 </r>
       <r>    -1.8039    12.7566    23.4683 </r>
       <r>    -1.7317    11.3748    24.2893 </r>
       <r>    -1.6595     9.4528    24.9715 </r>
       <r>    -1.5874     8.3950    25.5774 </r>
       <r>    -1.5152     9.4337    26.2583 </r>
       <r>    -1.4430    12.6090    27.1684 </r>
       <r>    -1.3708    16.8097    28.3816 </r>
       <r>    -1.2987    20.0824    29.8310 </r>
       <r>    -1.2265    20.6843    31.3239 </r>
       <r>    -1.1543    18.8907    32.6873 </r>
       <r>    -1.0822    16.9964    33.9140 </r>
       <r>    -1.0100    16.7245    35.1211 </r>
       <r>    -0.9378    17.5415    36.3871 </r>
       <r>    -0.8656    18.0722    37.6915 </r>
       <r>    -0.7935    17.8291    38.9783 </r>
       <r>    -0.7213    16.7749    40.1890 </r>
       <r>    -0.6491    14.5548    41.2394 </r>
       <r>    -0.5769    11.1174    42.0418 </r>
       <r>    -0.5048     7.3092    42.5694 </r>
       <r>    -0.4326     4.2234    42.8742 </r>
       <r>    -0.3604     2.2491    43.0365 </r>
       <r>    -0.2882     1.0620    43.1132 </r>
       <r>    -0.2161     0.3062    43.1353 </r>
       <r>    -0.1439    -0.1150    43.1270 </r>
       <r>    -0.0717    -0.2492    43.1090 </r>
       <r>     0.0005    -0.1511    43.0981 </r>
       <r>     0.0726     0.2318    43.1148 </r>
       <r>     0.1448     0.9211    43.1813 </r>
       <r>     0.2170     1.6736    43.3021 </r>
       <r>     0.2892     2.1756    43.4591 </r>
       <r>     0.3613     2.4091    43.6330 </r>
       <r>     0.4335     2.4594    43.8105 </r>
       <r>     0.5057     2.1678    43.9669 </r>
       <r>     0.5778     1.4647    44.0726 </r>
       <r>     0.6500     0.7676    44.1280 </r>
       <r>     0.7222     0.5474    44.1675 </r>
       <r>     0.7944     0.7159    44.2192 </r>
       <r>     0.8665     0.7964    44.2767 </r>
       <r>     0.9387     0.5529    44.3166 </r>
       <r>     1.0109     0.1962    44.3308 </r>
       <r>     1.0831     0.0547    44.3347 </r>
       <r>     1.1552     0.2423    44.3522 </r>
       <r>     1.2274     0.6224    44.3971 </r>
       <r>     1.2996     1.0140    44.4703 </r>
       <r>     1.3718     1.3976    44.5712 </r>
       <r>     1.4439     1.7674    44.6987 </r>
       <r>     1.5161     1.8558    44.8327 </r>
       <r>     1.5883     1.4118    44.9346 </r>
       <r>     1.6605     0.7351    44.9876 </r>
       <r>     1.7326     0.4903    45.0230 </r>
       <r>     1.8048     0.9452    45.0912 </r>
       <r>     1.8770     1.6741    45.2120 </r>
       <r>     1.9492     2.0894    45.3629 </r>
       <r>     2.0213     2.0357    45.5098 </r>
       <r>     2.0935     1.6826    45.6312 </r>
       <r>     2.1657     1.1524    45.7144 </r>
       <r>     2.2378     0.6133    45.7586 </r>
       <r>     2.3100     0.4425    45.7906 </r>
       <r>     2.3822     0.8731    45.8536 </r>
       <r>     2.4544     1.5954    45.9687 </r>
       <r>     2.5265     2.0302    46.1153 </r>
       <r>     2.5987     1.9787    46.2581 </r>
       <r>     2.6709     1.7377    46.3835 </r>
       <r>     2.7431     1.6034    46.4992 </r>
       <r>     2.8152     1.5297    46.6096 </r>
       <r>     2.8874     1.2915    46.7028 </r>
       <r>     2.9596     0.8272    46.7625 </r>
       <r>     3.0318     0.3319    46.7865 </r>
       <r>     3.1039     0.0243    46.7883 </r>
       <r>     3.1761    -0.0687    46.7833 </r>
       <r>     3.2483    -0.0616    46.7789 </r>
       <r>     3.3205    -0.0591    46.7746 </r>
       <r>     3.3926    -0.0936    46.7678 </r>
       <r>     3.4648    -0.1066    46.7601 </r>
       <r>     3.5370     0.0649    46.7648 </r>
       <r>     3.6092     0.5744    46.8063 </r>
       <r>     3.6813     1.3515    46.9038 </r>
       <r>     3.7535     2.1514    47.0591 </r>
       <r>     3.8257     2.8496    47.2648 </r>
       <r>     3.8979     3.3635    47.5075 </r>
       <r>     3.9700     3.3851    47.7518 </r>
       <r>     4.0422     2.7500    47.9503 </r>
       <r>     4.1144     1.8642    48.0849 </r>
       <r>     4.1865     1.2420    48.1745 </r>
       <r>     4.2587     0.9302    48.2416 </r>
       <r>     4.3309     0.6914    48.2915 </r>
       <r>     4.4031     0.4043    48.3207 </r>
       <r>     4.4752     0.1352    48.3305 </r>
       <r>     4.5474     0.0298    48.3326 </r>
       <r>     4.6196     0.1929    48.3465 </r>
       <r>     4.6918     0.5555    48.3866 </r>
       <r>     4.7639     0.8468    48.4478 </r>
       <r>     4.8361     0.8402    48.5084 </r>
       <r>     4.9083     0.6333    48.5541 </r>
       <r>     4.9805     0.5108    48.5910 </r>
       <r>     5.0526     0.5518    48.6308 </r>
       <r>     5.1248     0.5903    48.6734 </r>
       <r>     5.1970     0.5873    48.7158 </r>
       <r>     5.2692     0.8506    48.7772 </r>
       <r>     5.3413     1.7039    48.9001 </r>
       <r>     5.4135     2.9282    49.1115 </r>
       <r>     5.4857     3.7322    49.3809 </r>
       <r>     5.5579     3.4634    49.6308 </r>
       <r>     5.6300     2.3420    49.7999 </r>
       <r>     5.7022     1.3745    49.8991 </r>
       <r>     5.7744     1.3913    49.9995 </r>
       <r>     5.8465     2.1385    50.1538 </r>
       <r>     5.9187     2.5442    50.3374 </r>
       <r>     5.9909     1.9887    50.4810 </r>
       <r>     6.0631     0.9797    50.5517 </r>
       <r>     6.1352     0.4200    50.5820 </r>
       <r>     6.2074     0.6195    50.6267 </r>
       <r>     6.2796     1.2518    50.7171 </r>
       <r>     6.3518     1.9677    50.8591 </r>
       <r>     6.4239     2.7184    51.0553 </r>
       <r>     6.4961     3.4743    51.3060 </r>
       <r>     6.5683     3.8968    51.5873 </r>
       <r>     6.6405     3.5873    51.8462 </r>
       <r>     6.7126     2.6681    52.0388 </r>
       <r>     6.7848     1.7888    52.1679 </r>
       <r>     6.8570     1.3808    52.2675 </r>
       <r>     6.9292     1.2147    52.3552 </r>
       <r>     7.0013     0.8910    52.4195 </r>
       <r>     7.0735     0.4083    52.4490 </r>
       <r>     7.1457     0.0168    52.4502 </r>
       <r>     7.2179    -0.1692    52.4380 </r>
       <r>     7.2900    -0.1675    52.4259 </r>
       <r>     7.3622     0.0928    52.4326 </r>
       <r>     7.4344     0.7690    52.4881 </r>
       <r>     7.5065     1.8385    52.6208 </r>
       <r>     7.5787     2.9477    52.8335 </r>
       <r>     7.6509     3.7290    53.1027 </r>
       <r>     7.7231     4.2252    53.4076 </r>
       <r>     7.7952     4.6633    53.7442 </r>
       <r>     7.8674     4.8730    54.0959 </r>
       <r>     7.9396     4.3944    54.4130 </r>
       <r>     8.0118     3.1547    54.6407 </r>
       <r>     8.0839     1.7125    54.7643 </r>
       <r>     8.1561     0.7866    54.8211 </r>
       <r>     8.2283     0.6133    54.8654 </r>
       <r>     8.3005     0.8206    54.9246 </r>
       <r>     8.3726     0.9196    54.9910 </r>
       <r>     8.4448     0.7440    55.0447 </r>
       <r>     8.5170     0.4163    55.0747 </r>
       <r>     8.5892     0.1967    55.0889 </r>
       <r>     8.6613     0.4331    55.1202 </r>
       <r>     8.7335     1.2865    55.2130 </r>
       <r>     8.8057     2.3115    55.3799 </r>
       <r>     8.8779     2.6608    55.5719 </r>
       <r>     8.9500     1.9944    55.7158 </r>
       <r>     9.0222     0.9041    55.7811 </r>
       <r>     9.0944     0.2323    55.7979 </r>
       <r>     9.1666     0.2609    55.8167 </r>
       <r>     9.2387     0.6466    55.8634 </r>
       <r>     9.3109     0.8737    55.9264 </r>
       <r>     9.3831     0.7156    55.9781 </r>
       <r>     9.4552     0.3490    56.0033 </r>
       <r>     9.5274     0.0627    56.0078 </r>
       <r>     9.5996    -0.0426    56.0047 </r>
       <r>     9.6718    -0.0408    56.0018 </r>
       <r>     9.7439    -0.0181    56.0005 </r>
       <r>     9.8161    -0.0052    56.0001 </r>
       <r>     9.8883    -0.0011    56.0000 </r>
       <r>     9.9605    -0.0002    56.0000 </r>
       <r>    10.0326    -0.0000    56.0000 </r>
       <r>    10.1048    -0.0000    56.0000 </r>
       <r>    10.1770    -0.0000    56.0000 </r>
       <r>    10.2492    -0.0000    56.0000 </r>
       <r>    10.3213    -0.0000    56.0000 </r>
       <r>    10.3935    -0.0000    56.0000 </r>
       <r>    10.4657    -0.0000    56.0000 </r>
       <r>    10.5379    -0.0000    56.0000 </r>
       <r>    10.6100     0.0000    56.0000 </r>
       <r>    10.6822     0.0000    56.0000 </r>
       <r>    10.7544     0.0000    56.0000 </r>
       <r>    10.8266     0.0000    56.0000 </r>
       <r>    10.8987     0.0000    56.0000 </r>
       <r>    10.9709     0.0000    56.0000 </r>
       <r>    11.0431     0.0000    56.0000 </r>
       <r>    11.1152     0.0000    56.0000 </r>
       <r>    11.1874     0.0000    56.0000 </r>
       <r>    11.2596     0.0000    56.0000 </r>
       <r>    11.3318     0.0000    56.0000 </r>
      </set>
     </set>
    </array>
   </total>
  </dos>
 </calculation>
 <structure name="finalpos" >
  <crystal>
   <varray name="basis" >
    <v>       3.63000011       0.00000000       0.00000000 </v>
    <v>       0.00000000       2.56679773       0.00000000 </v>
    <v>       0.00000000       0.00000000      23.98379207 </v>
   </varray>
   <i name="volume">    223.46840857 </i>
   <varray name="rec_basis" >
    <v>       0.27548208       0.00000000       0.00000000 </v>
    <v>       0.00000000       0.38959050       0.00000000 </v>
    <v>       0.00000000       0.00000000       0.04169482 </v>
   </varray>
  </crystal>
  <varray name="positions" >
   <v>       0.00000000       0.00000000       0.00000000 </v>
   <v>       0.50000000       0.50000000       0.05351109 </v>
   <v>       0.00000000       0.00000000       0.10468148 </v>
   <v>       0.50000000       0.50000000       0.15792996 </v>
   <v>       0.00000000       0.00000000       0.21070899 </v>
   <v>       0.50000000       0.50000000       0.26289048 </v>
   <v>       0.00000000       0.00000000       0.31711592 </v>
   <v>       0.50000000       0.50000000       0.36467590 </v>
  </varray>
  <varray name="selective"  type="logical" >
   <v type="logical" >  F  F  F </v>
   <v type="logical" >  F  F  F </v>
   <v type="logical" >  T  T  T </v>
   <v type="logical" >  T  T  T </v>
   <v type="logical" >  T  T  T </v>
   <v type="logical" >  T  T  T </v>
   <v type="logical" >  T  T  T </v>
   <v type="logical" >  T  T  T </v>
  </varray>
  <nose>
   <v>      -3.00000000       0.00000000       0.00010000       0.00010000 </v>
  </nose>
 </structure>
</modeling>
