       N       E                     dE             d eps       ncg     rms          rms(c)
DAV:   1     0.155392189055E+05    0.15539E+05   -0.56109E+05 16392   0.190E+03
DAV:   2     0.226260662890E+04   -0.13277E+05   -0.12706E+05 16384   0.452E+02
DAV:   3    -0.387094323262E+03   -0.26497E+04   -0.23973E+04 16400   0.233E+02
DAV:   4    -0.608188624588E+03   -0.22109E+03   -0.20995E+03 17872   0.947E+01
DAV:   5    -0.614127126297E+03   -0.59385E+01   -0.59058E+01 18088   0.157E+01    0.112E+02
DAV:   6    -0.500590076044E+03    0.11354E+03   -0.13827E+03 17840   0.122E+02    0.556E+01
DAV:   7    -0.441258448429E+03    0.59332E+02   -0.31591E+02 17888   0.767E+01    0.294E+01
DAV:   8    -0.442376870293E+03   -0.11184E+01   -0.95545E+01 18936   0.978E+01    0.329E+01
DAV:   9    -0.433923221309E+03    0.84536E+01   -0.30505E+01 21784   0.677E+01    0.271E+01
DAV:  10    -0.429760496633E+03    0.41627E+01   -0.22902E+01 24152   0.494E+01    0.231E+01
DAV:  11    -0.432977801047E+03   -0.32173E+01   -0.11394E+01 26808   0.398E+01    0.209E+01
DAV:  12    -0.442977966961E+03   -0.10000E+02   -0.41457E+01 18208   0.362E+01    0.195E+01
DAV:  13    -0.446092344162E+03   -0.31144E+01   -0.10900E+01 19608   0.207E+01    0.154E+01
DAV:  14    -0.456650471751E+03   -0.10558E+02   -0.19231E+01 18368   0.239E+01    0.798E+00
DAV:  15    -0.468933620054E+03   -0.12283E+02   -0.12942E+01 20440   0.275E+01    0.804E+00
DAV:  16    -0.488555822441E+03   -0.19622E+02   -0.18333E+01 21000   0.141E+01    0.503E+00
DAV:  17    -0.495470528243E+03   -0.69147E+01   -0.61706E+00 18240   0.617E+00    0.346E+00
DAV:  18    -0.498859511600E+03   -0.33890E+01   -0.16573E+00 18792   0.464E+00    0.286E+00
DAV:  19    -0.505750133672E+03   -0.68906E+01   -0.38884E+00 21512   0.427E+00    0.260E+00
DAV:  20    -0.510343246076E+03   -0.45931E+01   -0.23058E+00 17296   0.255E+00    0.212E+00
DAV:  21    -0.513322467748E+03   -0.29792E+01   -0.14790E+00 22904   0.284E+00    0.185E+00
DAV:  22    -0.515476514679E+03   -0.21540E+01   -0.92102E-01 19680   0.319E+00    0.146E+00
DAV:  23    -0.516836338060E+03   -0.13598E+01   -0.33545E-01 19408   0.326E+00    0.121E+00
DAV:  24    -0.518292922449E+03   -0.14566E+01   -0.39503E-01 21368   0.190E+00    0.890E-01
DAV:  25    -0.519333648689E+03   -0.10407E+01   -0.11325E-01 19184   0.193E+00    0.625E-01
DAV:  26    -0.519956923271E+03   -0.62327E+00   -0.36516E-02 18488   0.120E+00    0.513E-01
DAV:  27    -0.520678182795E+03   -0.72126E+00   -0.27447E-02 17608   0.101E+00    0.333E-01
DAV:  28    -0.521421679856E+03   -0.74350E+00   -0.17117E-02 20584   0.719E-01    0.314E-01
DAV:  29    -0.521489702976E+03   -0.68023E-01   -0.60449E-03 19184   0.490E-01    0.154E-01
DAV:  30    -0.521514786376E+03   -0.25083E-01   -0.38431E-03 19272   0.326E-01    0.941E-02
DAV:  31    -0.521529041725E+03   -0.14255E-01   -0.11506E-03 17536   0.163E-01    0.543E-02
DAV:  32    -0.521530550626E+03   -0.15089E-02   -0.36401E-04 11784   0.930E-02    0.335E-02
DAV:  33    -0.521530957727E+03   -0.40710E-03   -0.20886E-04 11200   0.797E-02    0.232E-02
DAV:  34    -0.521530953997E+03    0.37296E-05   -0.86141E-05 10832   0.511E-02
   1 F= -.58184170E+03 E0= -.58188010E+03  d E =-.581842E+03  mag=    -0.0004
       N       E                     dE             d eps       ncg     rms          rms(c)
DAV:   1    -0.521522507953E+03    0.84498E-02   -0.23909E+01 17896   0.490E+00    0.695E-01
DAV:   2    -0.521577517995E+03   -0.55010E-01   -0.62495E-01 23296   0.175E+00    0.680E-01
DAV:   3    -0.521576569587E+03    0.94841E-03   -0.34293E-02 19512   0.171E+00    0.518E-01
DAV:   4    -0.521581087567E+03   -0.45180E-02   -0.14321E-02 19648   0.254E+00    0.523E-01
DAV:   5    -0.521573776187E+03    0.73114E-02   -0.12349E-02 27256   0.226E+00    0.249E-01
DAV:   6    -0.521572870703E+03    0.90548E-03   -0.67757E-03 29952   0.125E+00    0.171E-01
DAV:   7    -0.521572221966E+03    0.64874E-03   -0.37959E-03 25208   0.725E-01    0.642E-02
DAV:   8    -0.521572356148E+03   -0.13418E-03   -0.24941E-03 17704   0.248E-01    0.405E-02
DAV:   9    -0.521572422573E+03   -0.66425E-04   -0.80625E-04 15088   0.101E-01
   2 F= -.58189950E+03 E0= -.58193744E+03  d E =-.577989E-01  mag=    -0.0000
       N       E                     dE             d eps       ncg     rms          rms(c)
DAV:   1    -0.521581654065E+03   -0.92979E-02   -0.12467E+00 17584   0.113E+00    0.139E-01
DAV:   2    -0.521584607472E+03   -0.29534E-02   -0.32362E-02 23408   0.353E-01    0.147E-01
DAV:   3    -0.521584559802E+03    0.47671E-04   -0.16982E-03 18808   0.238E-01
   3 F= -.58190266E+03 E0= -.58194064E+03  d E =-.609546E-01  mag=    -0.0000
       N       E                     dE             d eps       ncg     rms          rms(c)
DAV:   1    -0.521598644717E+03   -0.14037E-01   -0.29071E+01 17936   0.549E+00    0.395E-01
DAV:   2    -0.521659206207E+03   -0.60561E-01   -0.54639E-01 27264   0.263E+00    0.622E-01
DAV:   3    -0.521655095242E+03    0.41110E-02   -0.62199E-02 18832   0.278E+00    0.433E-01
DAV:   4    -0.521653917690E+03    0.11776E-02   -0.18318E-02 18488   0.108E+00    0.296E-01
DAV:   5    -0.521654394574E+03   -0.47688E-03   -0.11859E-02 18272   0.630E-01    0.305E-01
DAV:   6    -0.521653675367E+03    0.71921E-03   -0.94581E-03 18888   0.861E-01    0.187E-01
DAV:   7    -0.521653221435E+03    0.45393E-03   -0.44585E-03 23792   0.570E-01    0.630E-02
DAV:   8    -0.521653245356E+03   -0.23921E-04   -0.94067E-04 16576   0.183E-01
   4 F= -.58196523E+03 E0= -.58200268E+03  d E =-.625720E-01  mag=    -0.0000
       N       E                     dE             d eps       ncg     rms          rms(c)
DAV:   1    -0.521628730708E+03    0.24491E-01   -0.28572E+01 17904   0.541E+00    0.383E-01
DAV:   2    -0.521686312613E+03   -0.57582E-01   -0.59155E-01 24312   0.180E+00    0.542E-01
DAV:   3    -0.521685395610E+03    0.91700E-03   -0.25022E-02 18400   0.131E+00    0.352E-01
DAV:   4    -0.521685526918E+03   -0.13131E-03   -0.54498E-03 19080   0.108E+00    0.342E-01
DAV:   5    -0.521684475180E+03    0.10517E-02   -0.27448E-03 21720   0.872E-01    0.296E-01
DAV:   6    -0.521683477109E+03    0.99807E-03   -0.44622E-03 29736   0.844E-01    0.186E-01
DAV:   7    -0.521682663743E+03    0.81337E-03   -0.24747E-03 22248   0.622E-01    0.743E-02
DAV:   8    -0.521682730633E+03   -0.66890E-04   -0.17536E-03 17520   0.179E-01
   5 F= -.58199039E+03 E0= -.58202740E+03  d E =-.877342E-01  mag=     0.0000
       N       E                     dE             d eps       ncg     rms          rms(c)
DAV:   1    -0.521682560972E+03    0.10277E-03   -0.59457E-01 17904   0.789E-01    0.576E-02
DAV:   2    -0.521683853293E+03   -0.12923E-02   -0.12249E-02 25208   0.348E-01    0.843E-02
DAV:   3    -0.521683812460E+03    0.40832E-04   -0.84949E-04 15568   0.368E-01
   6 F= -.58199095E+03 E0= -.58202790E+03  d E =-.882965E-01  mag=     0.0000
       N       E                     dE             d eps       ncg     rms          rms(c)
DAV:   1    -0.521693321762E+03   -0.94685E-02   -0.58908E+00 17248   0.244E+00    0.245E-01
DAV:   2    -0.521705988667E+03   -0.12667E-01   -0.13684E-01 23152   0.679E-01    0.270E-01
DAV:   3    -0.521705793806E+03    0.19486E-03   -0.54517E-03 19280   0.384E-01    0.216E-01
DAV:   4    -0.521705869951E+03   -0.76146E-04   -0.10810E-03 16768   0.573E-01
   7 F= -.58201090E+03 E0= -.58204830E+03  d E =-.199453E-01  mag=     0.0000
       N       E                     dE             d eps       ncg     rms          rms(c)
DAV:   1    -0.521707974171E+03   -0.21804E-02   -0.41917E-01 24808   0.121E+00    0.236E-01
DAV:   2    -0.521742192627E+03   -0.34218E-01   -0.59183E-02 30448   0.396E+00    0.770E-01
DAV:   3    -0.521706873098E+03    0.35320E-01   -0.44709E-02 19488   0.352E+00    0.130E-01
DAV:   4    -0.521706749858E+03    0.12324E-03   -0.15986E-03 20072   0.407E-01
   8 F= -.58201145E+03 E0= -.58204870E+03  d E =-.204934E-01  mag=     0.0000
       N       E                     dE             d eps       ncg     rms          rms(c)
DAV:   1    -0.521715614399E+03   -0.87413E-02   -0.15935E+00 17648   0.132E+00    0.123E-01
DAV:   2    -0.521719316792E+03   -0.37024E-02   -0.33681E-02 26784   0.752E-01    0.178E-01
DAV:   3    -0.521719151169E+03    0.16562E-03   -0.49950E-03 19096   0.753E-01    0.133E-01
DAV:   4    -0.521719009676E+03    0.14149E-03   -0.11479E-03 17728   0.351E-01
   9 F= -.58202406E+03 E0= -.58206131E+03  d E =-.126137E-01  mag=     0.0000
       N       E                     dE             d eps       ncg     rms          rms(c)
DAV:   1    -0.521710532611E+03    0.86186E-02   -0.14278E+01 17352   0.382E+00    0.354E-01
DAV:   2    -0.521740297470E+03   -0.29765E-01   -0.31509E-01 23432   0.115E+00    0.435E-01
DAV:   3    -0.521739914462E+03    0.38301E-03   -0.10999E-02 18912   0.765E-01    0.345E-01
DAV:   4    -0.521740312850E+03   -0.39839E-03   -0.26440E-03 18360   0.923E-01    0.347E-01
DAV:   5    -0.521739496259E+03    0.81659E-03   -0.17271E-03 17680   0.109E+00    0.281E-01
DAV:   6    -0.521737954204E+03    0.15421E-02   -0.28783E-03 21752   0.810E-01    0.142E-01
DAV:   7    -0.521737691129E+03    0.26307E-03   -0.25876E-03 24688   0.476E-01    0.115E-01
DAV:   8    -0.521737639688E+03    0.51441E-04   -0.11389E-03 16712   0.135E-01
  10 F= -.58204440E+03 E0= -.58208192E+03  d E =-.329490E-01  mag=     0.0000
       N       E                     dE             d eps       ncg     rms          rms(c)
DAV:   1    -0.521736384974E+03    0.13062E-02   -0.80679E-01 17272   0.913E-01    0.820E-02
DAV:   2    -0.521738185762E+03   -0.18008E-02   -0.18726E-02 23512   0.237E-01    0.790E-02
DAV:   3    -0.521738175061E+03    0.10701E-04   -0.50233E-04 10968   0.158E-01
  11 F= -.58204554E+03 E0= -.58208316E+03  d E =-.340901E-01  mag=     0.0000
       N       E                     dE             d eps       ncg     rms          rms(c)
DAV:   1    -0.521741849659E+03   -0.36639E-02   -0.26495E+00 16688   0.165E+00    0.171E-01
DAV:   2    -0.521747561308E+03   -0.57116E-02   -0.59140E-02 23704   0.537E-01    0.205E-01
DAV:   3    -0.521747544897E+03    0.16411E-04   -0.43132E-03 18216   0.572E-01    0.188E-01
DAV:   4    -0.521747389659E+03    0.15524E-03   -0.79640E-04 14928   0.253E-01
  12 F= -.58205681E+03 E0= -.58209451E+03  d E =-.112680E-01  mag=     0.0000
       N       E                     dE             d eps       ncg     rms          rms(c)
DAV:   1    -0.521715714764E+03    0.31830E-01   -0.23747E+01 16696   0.492E+00    0.503E-01
DAV:   2    -0.521768473485E+03   -0.52759E-01   -0.54396E-01 23912   0.179E+00    0.636E-01
DAV:   3    -0.521767298591E+03    0.11749E-02   -0.31335E-02 18472   0.168E+00    0.506E-01
DAV:   4    -0.521766366926E+03    0.93166E-03   -0.87719E-03 18880   0.115E+00    0.455E-01
DAV:   5    -0.521765378471E+03    0.98846E-03   -0.39672E-03 19792   0.103E+00    0.373E-01
DAV:   6    -0.521762820284E+03    0.25582E-02   -0.90021E-03 30408   0.994E-01    0.819E-02
DAV:   7    -0.521762731265E+03    0.89020E-04   -0.33660E-03 23704   0.380E-01    0.713E-02
DAV:   8    -0.521762844858E+03   -0.11359E-03   -0.18023E-03 17152   0.162E-01
  13 F= -.58207883E+03 E0= -.58211679E+03  d E =-.332945E-01  mag=     0.0000
       N       E                     dE             d eps       ncg     rms          rms(c)
DAV:   1    -0.521540559967E+03    0.22217E+00   -0.95140E+01 16800   0.990E+00    0.938E-01
DAV:   2    -0.521768293919E+03   -0.22773E+00   -0.23329E+00 23352   0.355E+00    0.126E+00
DAV:   3    -0.521763035617E+03    0.52583E-02   -0.99495E-02 19448   0.327E+00    0.985E-01
DAV:   4    -0.521758506182E+03    0.45294E-02   -0.19215E-02 19664   0.207E+00    0.901E-01
DAV:   5    -0.521750510080E+03    0.79961E-02   -0.21244E-02 24528   0.187E+00    0.647E-01
DAV:   6    -0.521743220386E+03    0.72897E-02   -0.35035E-02 22888   0.165E+00    0.151E-01
DAV:   7    -0.521744266296E+03   -0.10459E-02   -0.13456E-02 21776   0.433E-01    0.126E-01
DAV:   8    -0.521744407758E+03   -0.14146E-03   -0.42527E-03 17984   0.467E-01    0.100E-01
DAV:   9    -0.521744321767E+03    0.85991E-04   -0.78411E-04 14976   0.232E-01
  14 F= -.58207395E+03 E0= -.58211236E+03  d E =-.284118E-01  mag=     0.0000
       N       E                     dE             d eps       ncg     rms          rms(c)
DAV:   1    -0.521695515639E+03    0.48892E-01   -0.34804E+01 16784   0.597E+00    0.601E-01
DAV:   2    -0.521771012435E+03   -0.75497E-01   -0.80819E-01 22576   0.170E+00    0.705E-01
DAV:   3    -0.521769560710E+03    0.14517E-02   -0.30348E-02 19056   0.134E+00    0.571E-01
DAV:   4    -0.521770440860E+03   -0.88015E-03   -0.70875E-03 19328   0.165E+00    0.538E-01
DAV:   5    -0.521768828885E+03    0.16120E-02   -0.31087E-03 26720   0.191E+00    0.453E-01
DAV:   6    -0.521764388207E+03    0.44407E-02   -0.85605E-03 30504   0.158E+00    0.213E-01
DAV:   7    -0.521763665452E+03    0.72276E-03   -0.39223E-03 26472   0.705E-01    0.151E-01
DAV:   8    -0.521763423927E+03    0.24152E-03   -0.21428E-03 17408   0.314E-01    0.621E-02
DAV:   9    -0.521763413525E+03    0.10402E-04   -0.62960E-04 13776   0.136E-01
  15 F= -.58208482E+03 E0= -.58212285E+03  d E =-.392769E-01  mag=     0.0000
       N       E                     dE             d eps       ncg     rms          rms(c)
DAV:   1    -0.521762693505E+03    0.73042E-03   -0.32504E+00 16608   0.182E+00    0.203E-01
DAV:   2    -0.521770277573E+03   -0.75841E-02   -0.80580E-02 23072   0.535E-01    0.232E-01
DAV:   3    -0.521770263353E+03    0.14220E-04   -0.37582E-03 18528   0.562E-01    0.203E-01
DAV:   4    -0.521770064878E+03    0.19847E-03   -0.45409E-04 10992   0.452E-01
  16 F= -.58209809E+03 E0= -.58213599E+03  d E =-.132767E-01  mag=     0.0000
       N       E                     dE             d eps       ncg     rms          rms(c)
DAV:   1    -0.521736041700E+03    0.34222E-01   -0.13392E+01 16592   0.374E+00    0.428E-01
DAV:   2    -0.521773608054E+03   -0.37566E-01   -0.32462E-01 26640   0.218E+00    0.588E-01
DAV:   3    -0.521767194796E+03    0.64133E-02   -0.31646E-02 22640   0.201E+00    0.426E-01
DAV:   4    -0.521767089169E+03    0.10563E-03   -0.13742E-02 17976   0.663E-01    0.359E-01
DAV:   5    -0.521767398698E+03   -0.30953E-03   -0.70485E-03 18880   0.850E-01    0.299E-01
DAV:   6    -0.521766477859E+03    0.92084E-03   -0.85062E-03 18920   0.111E+00    0.134E-01
DAV:   7    -0.521765796284E+03    0.68158E-03   -0.36873E-03 23208   0.599E-01    0.110E-01
DAV:   8    -0.521765751089E+03    0.45194E-04   -0.12536E-03 16352   0.154E-01
  17 F= -.58210788E+03 E0= -.58214597E+03  d E =-.230680E-01  mag=    -0.0000
       N       E                     dE             d eps       ncg     rms          rms(c)
DAV:   1    -0.521758054866E+03    0.77414E-02   -0.42736E+00 16480   0.208E+00    0.229E-01
DAV:   2    -0.521770808261E+03   -0.12753E-01   -0.13284E-01 22528   0.662E-01    0.294E-01
DAV:   3    -0.521770685923E+03    0.12234E-03   -0.49444E-03 18968   0.551E-01    0.247E-01
DAV:   4    -0.521770583645E+03    0.10228E-03   -0.67384E-04 14560   0.441E-01
  18 F= -.58212315E+03 E0= -.58216097E+03  d E =-.152618E-01  mag=    -0.0000
       N       E                     dE             d eps       ncg     rms          rms(c)
DAV:   1    -0.521653204250E+03    0.11748E+00   -0.38478E+01 16512   0.627E+00    0.788E-01
DAV:   2    -0.521767420428E+03   -0.11422E+00   -0.11194E+00 25344   0.302E+00    0.103E+00
DAV:   3    -0.521758846549E+03    0.85739E-02   -0.76987E-02 20240   0.277E+00    0.843E-01
DAV:   4    -0.521757611382E+03    0.12352E-02   -0.25641E-02 18416   0.107E+00    0.753E-01
DAV:   5    -0.521756350382E+03    0.12610E-02   -0.17964E-02 19712   0.122E+00    0.506E-01
DAV:   6    -0.521751683154E+03    0.46672E-02   -0.33546E-02 19840   0.210E+00    0.292E-01
DAV:   7    -0.521750177611E+03    0.15055E-02   -0.10646E-02 25616   0.838E-01    0.232E-01
DAV:   8    -0.521749747734E+03    0.42988E-03   -0.36467E-03 18640   0.306E-01    0.145E-01
DAV:   9    -0.521749508055E+03    0.23968E-03   -0.18973E-03 17048   0.298E-01    0.345E-02
DAV:  10    -0.521749557035E+03   -0.48980E-04   -0.40326E-04 11600   0.600E-02
  19 F= -.58213315E+03 E0= -.58217119E+03  d E =-.252708E-01  mag=    -0.0000
       N       E                     dE             d eps       ncg     rms          rms(c)
DAV:   1    -0.521753037478E+03   -0.35294E-02   -0.33342E+00 16528   0.183E+00    0.226E-01
DAV:   2    -0.521761692081E+03   -0.86546E-02   -0.94709E-02 22400   0.508E-01    0.255E-01
DAV:   3    -0.521761537777E+03    0.15430E-03   -0.29331E-03 18848   0.392E-01    0.221E-01
DAV:   4    -0.521761696192E+03   -0.15841E-03   -0.47963E-04 11520   0.576E-01
  20 F= -.58213628E+03 E0= -.58217452E+03  d E =-.283944E-01  mag=    -0.0000
       N       E                     dE             d eps       ncg     rms          rms(c)
DAV:   1    -0.521749325331E+03    0.12212E-01   -0.36067E+00 16560   0.198E+00    0.247E-01
DAV:   2    -0.521765000318E+03   -0.15675E-01   -0.10381E-01 28200   0.182E+00    0.390E-01
DAV:   3    -0.521759556346E+03    0.54440E-02   -0.10949E-02 22896   0.196E+00    0.278E-01
DAV:   4    -0.521758923606E+03    0.63274E-03   -0.47248E-03 20072   0.667E-01    0.180E-01
DAV:   5    -0.521759148374E+03   -0.22477E-03   -0.43164E-03 18016   0.424E-01    0.164E-01
DAV:   6    -0.521758958024E+03    0.19035E-03   -0.25741E-03 18384   0.435E-01    0.900E-02
DAV:   7    -0.521758912458E+03    0.45566E-04   -0.89551E-04 16448   0.265E-01
  21 F= -.58214930E+03 E0= -.58218737E+03  d E =-.130205E-01  mag=    -0.0000
       N       E                     dE             d eps       ncg     rms          rms(c)
DAV:   1    -0.521653836998E+03    0.10512E+00   -0.32279E+01 16480   0.550E+00    0.705E-01
DAV:   2    -0.521744760206E+03   -0.90923E-01   -0.96960E-01 23120   0.209E+00    0.859E-01
DAV:   3    -0.521741981504E+03    0.27787E-02   -0.37099E-02 18712   0.154E+00    0.680E-01
DAV:   4    -0.521742095984E+03   -0.11448E-03   -0.83220E-03 19400   0.153E+00    0.640E-01
DAV:   5    -0.521742163250E+03   -0.67266E-04   -0.57808E-03 22520   0.209E+00    0.544E-01
DAV:   6    -0.521736491123E+03    0.56721E-02   -0.11138E-02 28832   0.186E+00    0.250E-01
DAV:   7    -0.521735065463E+03    0.14257E-02   -0.55180E-03 24488   0.865E-01    0.105E-01
DAV:   8    -0.521735342572E+03   -0.27711E-03   -0.43055E-03 17312   0.177E-01    0.601E-02
DAV:   9    -0.521735316450E+03    0.26122E-04   -0.31232E-04 10640   0.111E-01
  22 F= -.58217255E+03 E0= -.58221090E+03  d E =-.362711E-01  mag=    -0.0000
       N       E                     dE             d eps       ncg     rms          rms(c)
DAV:   1    -0.521729368733E+03    0.59738E-02   -0.31878E+00 16512   0.170E+00    0.210E-01
DAV:   2    -0.521737426713E+03   -0.80580E-02   -0.85847E-02 22624   0.586E-01    0.250E-01
DAV:   3    -0.521737250010E+03    0.17670E-03   -0.41639E-03 18432   0.379E-01    0.195E-01
DAV:   4    -0.521737132511E+03    0.11750E-03   -0.85008E-04 16176   0.293E-01
  23 F= -.58218730E+03 E0= -.58222558E+03  d E =-.147533E-01  mag=    -0.0000
       N       E                     dE             d eps       ncg     rms          rms(c)
DAV:   1    -0.521647611705E+03    0.89638E-01   -0.28689E+01 16592   0.513E+00    0.707E-01
DAV:   2    -0.521751286848E+03   -0.10368E+00   -0.68621E-01 29168   0.492E+00    0.113E+00
DAV:   3    -0.521714334926E+03    0.36952E-01   -0.91935E-02 27688   0.443E+00    0.691E-01
DAV:   4    -0.521714479611E+03   -0.14469E-03   -0.44380E-02 19448   0.909E-01    0.570E-01
DAV:   5    -0.521717635602E+03   -0.31560E-02   -0.23254E-02 18744   0.163E+00    0.579E-01
DAV:   6    -0.521713169485E+03    0.44661E-02   -0.22426E-02 19024   0.174E+00    0.301E-01
DAV:   7    -0.521712569487E+03    0.60000E-03   -0.12100E-02 21296   0.647E-01    0.284E-01
DAV:   8    -0.521712191661E+03    0.37783E-03   -0.27148E-03 19008   0.189E-01    0.243E-01
DAV:   9    -0.521711085884E+03    0.11058E-02   -0.37005E-03 17392   0.384E-01    0.359E-02
DAV:  10    -0.521711146421E+03   -0.60537E-04   -0.59288E-04 12720   0.958E-02
  24 F= -.58220099E+03 E0= -.58224002E+03  d E =-.284419E-01  mag=    -0.0000
       N       E                     dE             d eps       ncg     rms          rms(c)
DAV:   1    -0.521717967550E+03   -0.68817E-02   -0.12085E+00 16592   0.105E+00    0.151E-01
DAV:   2    -0.521720630962E+03   -0.26634E-02   -0.30651E-02 22336   0.278E-01    0.149E-01
DAV:   3    -0.521720485129E+03    0.14583E-03   -0.96612E-04 15648   0.160E-01
  25 F= -.58220215E+03 E0= -.58224104E+03  d E =-.295999E-01  mag=    -0.0000
       N       E                     dE             d eps       ncg     rms          rms(c)
DAV:   1    -0.521700610683E+03    0.20020E-01   -0.57430E+00 16592   0.232E+00    0.268E-01
DAV:   2    -0.521716553608E+03   -0.15943E-01   -0.12418E-01 27904   0.165E+00    0.377E-01
DAV:   3    -0.521713669609E+03    0.28840E-02   -0.17035E-02 24528   0.172E+00    0.283E-01
DAV:   4    -0.521713147106E+03    0.52250E-03   -0.57184E-03 18336   0.592E-01    0.205E-01
DAV:   5    -0.521713286551E+03   -0.13945E-03   -0.38280E-03 18048   0.471E-01    0.180E-01
DAV:   6    -0.521713179587E+03    0.10696E-03   -0.29698E-03 18864   0.533E-01    0.117E-01
DAV:   7    -0.521712987907E+03    0.19168E-03   -0.13131E-03 17432   0.377E-01
  26 F= -.58221249E+03 E0= -.58225153E+03  d E =-.103395E-01  mag=    -0.0000
       N       E                     dE             d eps       ncg     rms          rms(c)
DAV:   1    -0.521638362331E+03    0.74817E-01   -0.22602E+01 16560   0.457E+00    0.588E-01
DAV:   2    -0.521690589768E+03   -0.52227E-01   -0.56448E-01 23488   0.188E+00    0.669E-01
DAV:   3    -0.521689745849E+03    0.84392E-03   -0.28439E-02 18168   0.180E+00    0.510E-01
DAV:   4    -0.521688382179E+03    0.13637E-02   -0.65009E-03 19456   0.154E+00    0.439E-01
DAV:   5    -0.521687136731E+03    0.12454E-02   -0.51168E-03 22600   0.137E+00    0.328E-01
DAV:   6    -0.521686186087E+03    0.95064E-03   -0.61934E-03 22136   0.128E+00    0.206E-01
DAV:   7    -0.521685248841E+03    0.93725E-03   -0.41800E-03 20040   0.762E-01    0.510E-02
DAV:   8    -0.521685448308E+03   -0.19947E-03   -0.26098E-03 16992   0.155E-01    0.313E-02
DAV:   9    -0.521685502033E+03   -0.53725E-04   -0.63265E-04 13976   0.106E-01
  27 F= -.58222043E+03 E0= -.58226007E+03  d E =-.182774E-01  mag=    -0.0000
       N       E                     dE             d eps       ncg     rms          rms(c)
DAV:   1    -0.521688040345E+03   -0.25920E-02   -0.13835E-01 16720   0.365E-01    0.455E-02
DAV:   2    -0.521688333682E+03   -0.29334E-03   -0.32965E-03 22488   0.130E-01    0.518E-02
DAV:   3    -0.521688323480E+03    0.10202E-04   -0.13286E-04 10800   0.125E-01
  28 F= -.58222047E+03 E0= -.58226016E+03  d E =-.183215E-01  mag=    -0.0000
       N       E                     dE             d eps       ncg     rms          rms(c)
DAV:   1    -0.521691124540E+03   -0.27909E-02   -0.49194E-01 18096   0.720E-01    0.531E-02
DAV:   2    -0.521692241884E+03   -0.11173E-02   -0.80169E-03 28104   0.428E-01    0.884E-02
DAV:   3    -0.521692009929E+03    0.23196E-03   -0.14284E-03 17360   0.461E-01    0.601E-02
DAV:   4    -0.521692048703E+03   -0.38774E-04   -0.83216E-04 15416   0.114E-01
  29 F= -.58222387E+03 E0= -.58226348E+03  d E =-.339461E-02  mag=    -0.0000
       N       E                     dE             d eps       ncg     rms          rms(c)
DAV:   1    -0.521689107744E+03    0.29022E-02   -0.43877E+00 17872   0.211E+00    0.154E-01
DAV:   2    -0.521697393379E+03   -0.82856E-02   -0.85468E-02 24080   0.653E-01    0.197E-01
DAV:   3    -0.521697449044E+03   -0.55665E-04   -0.37655E-03 17744   0.558E-01    0.154E-01
DAV:   4    -0.521697307516E+03    0.14153E-03   -0.44590E-04 12672   0.385E-01
  30 F= -.58222822E+03 E0= -.58226769E+03  d E =-.775309E-02  mag=    -0.0000
       N       E                     dE             d eps       ncg     rms          rms(c)
DAV:   1    -0.521696126181E+03    0.13229E-02   -0.31958E-01 21080   0.676E-01    0.957E-02
DAV:   2    -0.521698357181E+03   -0.22310E-02   -0.39650E-03 22168   0.965E-01    0.177E-01
DAV:   3    -0.521696539181E+03    0.18180E-02   -0.15458E-03 19272   0.980E-01    0.847E-02
DAV:   4    -0.521696437499E+03    0.10168E-03   -0.68140E-04 14384   0.291E-01
  31 F= -.58222759E+03 E0= -.58226726E+03  d E =-.711583E-02  mag=    -0.0000
       N       E                     dE             d eps       ncg     rms          rms(c)
DAV:   1    -0.521696694015E+03   -0.15483E-03   -0.66991E-02 20232   0.307E-01    0.285E-02
DAV:   2    -0.521696889007E+03   -0.19499E-03   -0.45736E-04 12616   0.314E-01
  32 F= -.58222793E+03 E0= -.58226754E+03  d E =-.746074E-02  mag=    -0.0000
       N       E                     dE             d eps       ncg     rms          rms(c)
DAV:   1    -0.521700348516E+03   -0.36545E-02   -0.50944E-01 18264   0.778E-01    0.829E-02
DAV:   2    -0.521701486063E+03   -0.11375E-02   -0.10213E-02 27216   0.396E-01    0.103E-01
DAV:   3    -0.521701353956E+03    0.13211E-03   -0.11692E-03 17168   0.440E-01
  33 F= -.58222932E+03 E0= -.58226895E+03  d E =-.138743E-02  mag=    -0.0000
       N       E                     dE             d eps       ncg     rms          rms(c)
DAV:   1    -0.521701118556E+03    0.36751E-03   -0.20131E-03 21776   0.208E-01    0.523E-02
DAV:   2    -0.521701187178E+03   -0.68622E-04   -0.26908E-04 10912   0.235E-01
  34 F= -.58222932E+03 E0= -.58226884E+03  d E =-.139274E-02  mag=    -0.0000
       N       E                     dE             d eps       ncg     rms          rms(c)
DAV:   1    -0.521701218630E+03   -0.10007E-03   -0.28811E-04 11728   0.287E-01    0.385E-02
DAV:   2    -0.521702422829E+03   -0.12042E-02   -0.25623E-04 11256   0.760E-01    0.152E-01
DAV:   3    -0.521701181184E+03    0.12416E-02   -0.81543E-05 11080   0.647E-01    0.134E-02
DAV:   4    -0.521701232442E+03   -0.51258E-04   -0.52670E-04 12680   0.639E-02
  35 F= -.58222923E+03 E0= -.58226876E+03  d E =-.129588E-02  mag=    -0.0000
       N       E                     dE             d eps       ncg     rms          rms(c)
DAV:   1    -0.521701154296E+03    0.26888E-04   -0.28109E-04  9824   0.684E-02    0.155E-02
DAV:   2    -0.521701166618E+03   -0.12322E-04   -0.65861E-05 10032   0.815E-02
  36 F= -.58222926E+03 E0= -.58226876E+03  d E =-.132470E-02  mag=    -0.0000
       N       E                     dE             d eps       ncg     rms          rms(c)
DAV:   1    -0.521701213501E+03   -0.59205E-04   -0.50012E-05  9968   0.105E-01    0.121E-02
DAV:   2    -0.521701340420E+03   -0.12692E-03   -0.15884E-05 10304   0.247E-01
  37 F= -.58222938E+03 E0= -.58226883E+03  d E =-.145116E-02  mag=    -0.0000
       N       E                     dE             d eps       ncg     rms          rms(c)
DAV:   1    -0.521701194427E+03    0.19074E-04   -0.57774E-06 10392   0.212E-01    0.307E-03
DAV:   2    -0.521701201332E+03   -0.69049E-05   -0.33875E-06  9576   0.543E-02
  38 F= -.58222926E+03 E0= -.58226879E+03  d E =-.132839E-02  mag=    -0.0000
       N       E                     dE             d eps       ncg     rms          rms(c)
DAV:   1    -0.521705103346E+03   -0.39089E-02   -0.65404E-01 17968   0.801E-01    0.510E-02
DAV:   2    -0.521706204891E+03   -0.11015E-02   -0.11238E-02 24040   0.232E-01    0.676E-02
DAV:   3    -0.521706216728E+03   -0.11837E-04   -0.55868E-04 14240   0.201E-01
  39 F= -.58223082E+03 E0= -.58227033E+03  d E =-.156090E-02  mag=    -0.0000
       N       E                     dE             d eps       ncg     rms          rms(c)
DAV:   1    -0.521709710000E+03   -0.35051E-02   -0.66278E-01 17984   0.814E-01    0.739E-02
DAV:   2    -0.521710779833E+03   -0.10698E-02   -0.11669E-02 24048   0.236E-01    0.877E-02
DAV:   3    -0.521710776328E+03    0.35050E-05   -0.68431E-04 15000   0.201E-01
  40 F= -.58223192E+03 E0= -.58227152E+03  d E =-.266048E-02  mag=    -0.0000
       N       E                     dE             d eps       ncg     rms          rms(c)
DAV:   1    -0.521714474993E+03   -0.36952E-02   -0.26377E+00 17960   0.161E+00    0.129E-01
DAV:   2    -0.521718872537E+03   -0.43975E-02   -0.41616E-02 26384   0.609E-01    0.176E-01
DAV:   3    -0.521718700329E+03    0.17221E-03   -0.53491E-03 17976   0.652E-01    0.148E-01
DAV:   4    -0.521718687061E+03    0.13268E-04   -0.17654E-03 16816   0.186E-01
  41 F= -.58223291E+03 E0= -.58227248E+03  d E =-.365304E-02  mag=     0.0000
       N       E                     dE             d eps       ncg     rms          rms(c)
DAV:   1    -0.521722600372E+03   -0.39000E-02   -0.54820E-01 17856   0.754E-01    0.104E-01
DAV:   2    -0.521725510709E+03   -0.29103E-02   -0.72542E-03 30712   0.106E+00    0.220E-01
DAV:   3    -0.521723155676E+03    0.23550E-02   -0.18359E-03 23888   0.937E-01    0.792E-02
DAV:   4    -0.521723213655E+03   -0.57979E-04   -0.14076E-03 17920   0.212E-01
  42 F= -.58223378E+03 E0= -.58227334E+03  d E =-.862762E-03  mag=     0.0000
       N       E                     dE             d eps       ncg     rms          rms(c)
DAV:   1    -0.521725309779E+03   -0.21541E-02   -0.26528E-01 18848   0.580E-01    0.647E-02
DAV:   2    -0.521725907939E+03   -0.59816E-03   -0.52129E-03 25936   0.419E-01    0.924E-02
DAV:   3    -0.521725771339E+03    0.13660E-03   -0.66327E-04 15096   0.333E-01
  43 F= -.58223382E+03 E0= -.58227334E+03  d E =-.908650E-03  mag=     0.0000
       N       E                     dE             d eps       ncg     rms          rms(c)
DAV:   1    -0.521724660566E+03    0.12474E-02   -0.51514E-02 23088   0.296E-01    0.341E-02
DAV:   2    -0.521725350850E+03   -0.69028E-03   -0.24571E-04 11176   0.568E-01    0.115E-01
DAV:   3    -0.521724659838E+03    0.69101E-03   -0.12385E-04 11384   0.493E-01    0.161E-02
DAV:   4    -0.521724685428E+03   -0.25590E-04   -0.22995E-04 11488   0.889E-02
  44 F= -.58223384E+03 E0= -.58227325E+03  d E =-.927185E-03  mag=     0.0000
       N       E                     dE             d eps       ncg     rms          rms(c)
DAV:   1    -0.521726777909E+03   -0.21181E-02   -0.86534E-02 17952   0.304E-01    0.228E-02
DAV:   2    -0.521726930049E+03   -0.15214E-03   -0.15148E-03 20904   0.951E-02
  45 F= -.58223445E+03 E0= -.58227396E+03  d E =-.612776E-03  mag=     0.0000
       N       E                     dE             d eps       ncg     rms          rms(c)
DAV:   1    -0.521730465213E+03   -0.36873E-02   -0.32113E-01 17888   0.585E-01    0.462E-02
DAV:   2    -0.521731187205E+03   -0.72199E-03   -0.49850E-03 26160   0.371E-01    0.813E-02
DAV:   3    -0.521730995601E+03    0.19160E-03   -0.96600E-04 15960   0.359E-01
  46 F= -.58223540E+03 E0= -.58227485E+03  d E =-.156301E-02  mag=     0.0000
       N       E                     dE             d eps       ncg     rms          rms(c)
DAV:   1    -0.521736398594E+03   -0.52114E-02   -0.12783E+00 17768   0.114E+00    0.923E-02
DAV:   2    -0.521738723800E+03   -0.23252E-02   -0.24805E-02 23736   0.339E-01    0.120E-01
DAV:   3    -0.521738692046E+03    0.31754E-04   -0.94481E-04 15936   0.176E-01
  47 F= -.58223688E+03 E0= -.58227624E+03  d E =-.304026E-02  mag=     0.0000
       N       E                     dE             d eps       ncg     rms          rms(c)
DAV:   1    -0.521741389481E+03   -0.26657E-02   -0.23645E-01 18096   0.515E-01    0.103E-01
DAV:   2    -0.521742526159E+03   -0.11367E-02   -0.22351E-03 23752   0.749E-01    0.158E-01
DAV:   3    -0.521741435052E+03    0.10911E-02   -0.79418E-04 16360   0.727E-01    0.757E-02
DAV:   4    -0.521741436887E+03   -0.18344E-05   -0.74517E-04 15224   0.285E-01
  48 F= -.58223697E+03 E0= -.58227656E+03  d E =-.313101E-02  mag=     0.0000
       N       E                     dE             d eps       ncg     rms          rms(c)
DAV:   1    -0.521744956412E+03   -0.35214E-02   -0.92750E-01 18048   0.103E+00    0.620E-02
DAV:   2    -0.521746860141E+03   -0.19037E-02   -0.18597E-02 24704   0.389E-01    0.884E-02
DAV:   3    -0.521746855759E+03    0.43820E-05   -0.15193E-03 17008   0.297E-01
  49 F= -.58223709E+03 E0= -.58227633E+03  d E =-.324842E-02  mag=     0.0000
       N       E                     dE             d eps       ncg     rms          rms(c)
DAV:   1    -0.521743369206E+03    0.34909E-02   -0.28706E-01 17888   0.548E-01    0.530E-02
DAV:   2    -0.521743873853E+03   -0.50465E-03   -0.50536E-03 23904   0.163E-01    0.323E-02
DAV:   3    -0.521744000824E+03   -0.12697E-03   -0.39519E-04 12512   0.329E-01
  50 F= -.58223719E+03 E0= -.58227664E+03  d E =-.335494E-02  mag=     0.0000
       N       E                     dE             d eps       ncg     rms          rms(c)
DAV:   1    -0.521745291118E+03   -0.14173E-02   -0.71916E-02 23664   0.353E-01    0.185E-02
DAV:   2    -0.521745353637E+03   -0.62519E-04   -0.62378E-04 12528   0.733E-02
  51 F= -.58223707E+03 E0= -.58227632E+03  d E =-.322669E-02  mag=     0.0000
       N       E                     dE             d eps       ncg     rms          rms(c)
DAV:   1    -0.521744780138E+03    0.51098E-03   -0.11771E-02 23984   0.166E-01    0.246E-02
DAV:   2    -0.521745012306E+03   -0.23217E-03   -0.15005E-04 10640   0.358E-01    0.710E-02
DAV:   3    -0.521744780926E+03    0.23138E-03   -0.22526E-05 10360   0.316E-01    0.837E-03
DAV:   4    -0.521744778187E+03    0.27396E-05   -0.29891E-05  9768   0.534E-02
  52 F= -.58223708E+03 E0= -.58227639E+03  d E =-.324246E-02  mag=     0.0000
       N       E                     dE             d eps       ncg     rms          rms(c)
DAV:   1    -0.521744954863E+03   -0.17394E-03   -0.97975E-04 13824   0.398E-02    0.464E-03
DAV:   2    -0.521744957937E+03   -0.30739E-05   -0.22789E-05  9096   0.235E-02
  53 F= -.58223709E+03 E0= -.58227636E+03  d E =-.324942E-02  mag=     0.0000
       N       E                     dE             d eps       ncg     rms          rms(c)
DAV:   1    -0.521744809395E+03    0.14547E-03   -0.25475E-04  9168   0.372E-02    0.120E-02
DAV:   2    -0.521744841876E+03   -0.32481E-04   -0.17327E-04  9920   0.125E-01
  54 F= -.58223710E+03 E0= -.58227634E+03  d E =-.325834E-02  mag=     0.0000
       N       E                     dE             d eps       ncg     rms          rms(c)
DAV:   1    -0.521744933790E+03   -0.12440E-03   -0.26963E-05 10000   0.112E-01    0.735E-03
DAV:   2    -0.521744990106E+03   -0.56316E-04   -0.61264E-06 10208   0.149E-01
  55 F= -.58223714E+03 E0= -.58227634E+03  d E =-.330203E-02  mag=     0.0000
       N       E                     dE             d eps       ncg     rms          rms(c)
DAV:   1    -0.521744884604E+03    0.49186E-04   -0.48458E-06 10112   0.130E-01    0.167E-03
DAV:   2    -0.521744887538E+03   -0.29343E-05   -0.87029E-07  9760   0.321E-02
