<?xml version="1.0" encoding="ISO-8859-1"?>
<modeling>
 <generator>
  <i name="program" type="string">vasp </i>
  <i name="version" type="string">6.3.2  </i>
  <i name="subversion" type="string">27Jun22 (build Aug 17 2022 15:43:34) complex                          parallel </i>
  <i name="platform" type="string">tv2STDVTST </i>
  <i name="date" type="string">2025 02 06 </i>
  <i name="time" type="string">16:25:26 </i>
 </generator>
 <incar>
  <i type="int" name="ISTART">     0</i>
  <i type="string" name="PREC">Normal</i>
  <i type="int" name="ISPIN">     2</i>
  <i type="int" name="ICHARG">     2</i>
  <i type="int" name="IBRION">     2</i>
  <i name="EDIFF">      0.00020000</i>
  <i name="EDIFFG">     -0.03000000</i>
  <i type="int" name="NSW">   800</i>
  <i type="int" name="ISIF">     2</i>
  <i type="int" name="ISYM">     1</i>
  <i name="ENCUT">    400.00000000</i>
  <i name="POTIM">      0.50000000</i>
  <i type="logical" name="LREAL"> F  </i>
  <i type="int" name="ISMEAR">     1</i>
  <i name="SIGMA">      0.20000000</i>
  <i type="logical" name="LWAVE"> F  </i>
  <i type="logical" name="LCHARG"> F  </i>
  <i type="string" name="GGA">PE</i>
  <i type="int" name="IVDW">    11</i>
 </incar>
 <primitive_cell>
  <structure name="primitive_cell" >
   <crystal>
    <varray name="basis" >
     <v>      10.89000034       0.00000000       0.00000000 </v>
     <v>       0.00000000      10.89000034       0.00000000 </v>
     <v>       0.00000000       0.00000000      27.70499992 </v>
    </varray>
    <i name="volume">   3285.59432860 </i>
    <varray name="rec_basis" >
     <v>       0.09182736       0.00000000       0.00000000 </v>
     <v>       0.00000000       0.09182736       0.00000000 </v>
     <v>       0.00000000       0.00000000       0.03609457 </v>
    </varray>
   </crystal>
   <varray name="positions" >
    <v>       0.00000000       0.00000000       0.00000000 </v>
    <v>       0.00000000       0.33333333       0.00000000 </v>
    <v>       0.00000000       0.66666667       0.00000000 </v>
    <v>       0.33333333       0.00000000       0.00000000 </v>
    <v>       0.33333333       0.33333333       0.00000000 </v>
    <v>       0.33333333       0.66666667       0.00000000 </v>
    <v>       0.66666667       0.00000000       0.00000000 </v>
    <v>       0.66666667       0.33333333       0.00000000 </v>
    <v>       0.66666667       0.66666667       0.00000000 </v>
    <v>       0.16666667       0.16666667       0.00000000 </v>
    <v>       0.16666667       0.50000000       0.00000000 </v>
    <v>       0.16666667       0.83333333       0.00000000 </v>
    <v>       0.50000000       0.16666667       0.00000000 </v>
    <v>       0.50000000       0.50000000       0.00000000 </v>
    <v>       0.50000000       0.83333333       0.00000000 </v>
    <v>       0.83333333       0.16666667       0.00000000 </v>
    <v>       0.83333333       0.50000000       0.00000000 </v>
    <v>       0.83333333       0.83333333       0.00000000 </v>
    <v>       0.00000000       0.16666667       0.06551164 </v>
    <v>       0.00000000       0.50000000       0.06551164 </v>
    <v>       0.00000000       0.83333333       0.06551164 </v>
    <v>       0.33333333       0.16666667       0.06551164 </v>
    <v>       0.33333333       0.50000000       0.06551164 </v>
    <v>       0.33333333       0.83333333       0.06551164 </v>
    <v>       0.66666667       0.16666667       0.06551164 </v>
    <v>       0.66666667       0.50000000       0.06551164 </v>
    <v>       0.66666667       0.83333333       0.06551164 </v>
    <v>       0.16666667       0.00000000       0.06551164 </v>
    <v>       0.16666667       0.33333333       0.06551164 </v>
    <v>       0.16666667       0.66666667       0.06551164 </v>
    <v>       0.50000000       0.00000000       0.06551164 </v>
    <v>       0.50000000       0.33333333       0.06551164 </v>
    <v>       0.50000000       0.66666667       0.06551164 </v>
    <v>       0.83333333       0.00000000       0.06551164 </v>
    <v>       0.83333333       0.33333333       0.06551164 </v>
    <v>       0.83333333       0.66666667       0.06551164 </v>
    <v>       0.00000000       0.00000000       0.13119553 </v>
    <v>       0.00000000       0.33333333       0.13119553 </v>
    <v>       0.00000000       0.66666667       0.13119553 </v>
    <v>       0.33333333       0.00000000       0.13119553 </v>
    <v>       0.33333333       0.33333333       0.13119553 </v>
    <v>       0.33333333       0.66666667       0.13119553 </v>
    <v>       0.66666667       0.00000000       0.13119553 </v>
    <v>       0.66666667       0.33333333       0.13119553 </v>
    <v>       0.66666667       0.66666667       0.13119553 </v>
    <v>       0.16666667       0.16666667       0.13119553 </v>
    <v>       0.16666667       0.50000000       0.13119553 </v>
    <v>       0.16666667       0.83333333       0.13119553 </v>
    <v>       0.50000000       0.16666667       0.13119553 </v>
    <v>       0.50000000       0.50000000       0.13119553 </v>
    <v>       0.50000000       0.83333333       0.13119553 </v>
    <v>       0.83333333       0.16666667       0.13119553 </v>
    <v>       0.83333333       0.50000000       0.13119553 </v>
    <v>       0.83333333       0.83333333       0.13119553 </v>
    <v>       0.00000000       0.16666667       0.19620680 </v>
    <v>       0.00000000       0.50000000       0.19620680 </v>
    <v>       0.00000000       0.83333333       0.19620680 </v>
    <v>       0.33333333       0.16666667       0.19620680 </v>
    <v>       0.33333333       0.50000000       0.19620680 </v>
    <v>       0.33333333       0.83333333       0.19620680 </v>
    <v>       0.66666667       0.16666667       0.19620680 </v>
    <v>       0.66666667       0.50000000       0.19620680 </v>
    <v>       0.66666667       0.83333333       0.19620680 </v>
    <v>       0.16666667       0.00000000       0.19620680 </v>
    <v>       0.16666667       0.33333333       0.19620680 </v>
    <v>       0.16666667       0.66666667       0.19620680 </v>
    <v>       0.50000000       0.00000000       0.19620680 </v>
    <v>       0.50000000       0.33333333       0.19620680 </v>
    <v>       0.50000000       0.66666667       0.19620680 </v>
    <v>       0.83333333       0.00000000       0.19620680 </v>
    <v>       0.83333333       0.33333333       0.19620680 </v>
    <v>       0.83333333       0.66666667       0.19620680 </v>
    <v>       0.00000000       0.00000000       0.25873860 </v>
    <v>       0.00000000       0.33333333       0.25873860 </v>
    <v>       0.00000000       0.66666667       0.25873860 </v>
    <v>       0.33333333       0.00000000       0.25873860 </v>
    <v>       0.33333333       0.33333333       0.25873860 </v>
    <v>       0.33333333       0.66666667       0.25873860 </v>
    <v>       0.66666667       0.00000000       0.25873860 </v>
    <v>       0.66666667       0.33333333       0.25873860 </v>
    <v>       0.66666667       0.66666667       0.25873860 </v>
    <v>       0.16666667       0.16666667       0.25873860 </v>
    <v>       0.16666667       0.50000000       0.25873860 </v>
    <v>       0.16666667       0.83333333       0.25873860 </v>
    <v>       0.50000000       0.16666667       0.25873860 </v>
    <v>       0.50000000       0.50000000       0.25873860 </v>
    <v>       0.50000000       0.83333333       0.25873860 </v>
    <v>       0.83333333       0.16666667       0.25873860 </v>
    <v>       0.83333333       0.50000000       0.25873860 </v>
    <v>       0.83333333       0.83333333       0.25873860 </v>
    <v>       0.00000000       0.16666667       0.32119954 </v>
    <v>       0.00000000       0.50000000       0.32119954 </v>
    <v>       0.00000000       0.83333333       0.32119954 </v>
    <v>       0.33333333       0.16666667       0.32119954 </v>
    <v>       0.33333333       0.50000000       0.32119954 </v>
    <v>       0.33333333       0.83333333       0.32119954 </v>
    <v>       0.66666667       0.16666667       0.32119954 </v>
    <v>       0.66666667       0.50000000       0.32119954 </v>
    <v>       0.66666667       0.83333333       0.32119954 </v>
    <v>       0.16666667       0.00000000       0.32119954 </v>
    <v>       0.16666667       0.33333333       0.32119954 </v>
    <v>       0.16666667       0.66666667       0.32119954 </v>
    <v>       0.50000000       0.00000000       0.32119954 </v>
    <v>       0.50000000       0.33333333       0.32119954 </v>
    <v>       0.50000000       0.66666667       0.32119954 </v>
    <v>       0.83333333       0.00000000       0.32119954 </v>
    <v>       0.83333333       0.33333333       0.32119954 </v>
    <v>       0.83333333       0.66666667       0.32119954 </v>
    <v>       0.00000000       0.00000000       0.38476372 </v>
    <v>       0.00000000       0.33333333       0.38476372 </v>
    <v>       0.00000000       0.66666667       0.38476372 </v>
    <v>       0.33333333       0.00000000       0.38476372 </v>
    <v>       0.33333333       0.33333333       0.38476372 </v>
    <v>       0.33333333       0.66666667       0.38476372 </v>
    <v>       0.66666667       0.00000000       0.38476372 </v>
    <v>       0.66666667       0.33333333       0.38476372 </v>
    <v>       0.66666667       0.66666667       0.38476372 </v>
    <v>       0.16666667       0.16666667       0.38476372 </v>
    <v>       0.16666667       0.50000000       0.38476372 </v>
    <v>       0.16666667       0.83333333       0.38476372 </v>
    <v>       0.50000000       0.16666667       0.38476372 </v>
    <v>       0.50000000       0.50000000       0.38476372 </v>
    <v>       0.50000000       0.83333333       0.38476372 </v>
    <v>       0.83333333       0.16666667       0.38476372 </v>
    <v>       0.83333333       0.50000000       0.38476372 </v>
    <v>       0.83333333       0.83333333       0.38476372 </v>
    <v>       0.00000000       0.16666667       0.44736473 </v>
    <v>       0.00000000       0.50000000       0.44736473 </v>
    <v>       0.00000000       0.83333333       0.44736473 </v>
    <v>       0.33333333       0.16666667       0.44736473 </v>
    <v>       0.33333333       0.50000000       0.44736473 </v>
    <v>       0.33333333       0.83333333       0.44736473 </v>
    <v>       0.66666667       0.16666667       0.44736473 </v>
    <v>       0.66666667       0.50000000       0.44736473 </v>
    <v>       0.66666667       0.83333333       0.44736473 </v>
    <v>       0.16666667       0.00000000       0.44736473 </v>
    <v>       0.16666667       0.33333333       0.44736473 </v>
    <v>       0.16666667       0.66666667       0.44736473 </v>
    <v>       0.50000000       0.00000000       0.44736473 </v>
    <v>       0.50000000       0.33333333       0.44736473 </v>
    <v>       0.50000000       0.66666667       0.44736473 </v>
    <v>       0.83333333       0.00000000       0.44736473 </v>
    <v>       0.83333333       0.33333333       0.44736473 </v>
    <v>       0.83333333       0.66666667       0.44736473 </v>
    <v>       0.33333333       0.33333333       0.50150658 </v>
    <v>       0.33333333       0.38177242       0.52054652 </v>
   </varray>
  </structure>
  <varray name="primitive_index" >
   <v type="int" >        1 </v>
   <v type="int" >        2 </v>
   <v type="int" >        3 </v>
   <v type="int" >        4 </v>
   <v type="int" >        5 </v>
   <v type="int" >        6 </v>
   <v type="int" >        7 </v>
   <v type="int" >        8 </v>
   <v type="int" >        9 </v>
   <v type="int" >       10 </v>
   <v type="int" >       11 </v>
   <v type="int" >       12 </v>
   <v type="int" >       13 </v>
   <v type="int" >       14 </v>
   <v type="int" >       15 </v>
   <v type="int" >       16 </v>
   <v type="int" >       17 </v>
   <v type="int" >       18 </v>
   <v type="int" >       19 </v>
   <v type="int" >       20 </v>
   <v type="int" >       21 </v>
   <v type="int" >       22 </v>
   <v type="int" >       23 </v>
   <v type="int" >       24 </v>
   <v type="int" >       25 </v>
   <v type="int" >       26 </v>
   <v type="int" >       27 </v>
   <v type="int" >       28 </v>
   <v type="int" >       29 </v>
   <v type="int" >       30 </v>
   <v type="int" >       31 </v>
   <v type="int" >       32 </v>
   <v type="int" >       33 </v>
   <v type="int" >       34 </v>
   <v type="int" >       35 </v>
   <v type="int" >       36 </v>
   <v type="int" >       37 </v>
   <v type="int" >       38 </v>
   <v type="int" >       39 </v>
   <v type="int" >       40 </v>
   <v type="int" >       41 </v>
   <v type="int" >       42 </v>
   <v type="int" >       43 </v>
   <v type="int" >       44 </v>
   <v type="int" >       45 </v>
   <v type="int" >       46 </v>
   <v type="int" >       47 </v>
   <v type="int" >       48 </v>
   <v type="int" >       49 </v>
   <v type="int" >       50 </v>
   <v type="int" >       51 </v>
   <v type="int" >       52 </v>
   <v type="int" >       53 </v>
   <v type="int" >       54 </v>
   <v type="int" >       55 </v>
   <v type="int" >       56 </v>
   <v type="int" >       57 </v>
   <v type="int" >       58 </v>
   <v type="int" >       59 </v>
   <v type="int" >       60 </v>
   <v type="int" >       61 </v>
   <v type="int" >       62 </v>
   <v type="int" >       63 </v>
   <v type="int" >       64 </v>
   <v type="int" >       65 </v>
   <v type="int" >       66 </v>
   <v type="int" >       67 </v>
   <v type="int" >       68 </v>
   <v type="int" >       69 </v>
   <v type="int" >       70 </v>
   <v type="int" >       71 </v>
   <v type="int" >       72 </v>
   <v type="int" >       73 </v>
   <v type="int" >       74 </v>
   <v type="int" >       75 </v>
   <v type="int" >       76 </v>
   <v type="int" >       77 </v>
   <v type="int" >       78 </v>
   <v type="int" >       79 </v>
   <v type="int" >       80 </v>
   <v type="int" >       81 </v>
   <v type="int" >       82 </v>
   <v type="int" >       83 </v>
   <v type="int" >       84 </v>
   <v type="int" >       85 </v>
   <v type="int" >       86 </v>
   <v type="int" >       87 </v>
   <v type="int" >       88 </v>
   <v type="int" >       89 </v>
   <v type="int" >       90 </v>
   <v type="int" >       91 </v>
   <v type="int" >       92 </v>
   <v type="int" >       93 </v>
   <v type="int" >       94 </v>
   <v type="int" >       95 </v>
   <v type="int" >       96 </v>
   <v type="int" >       97 </v>
   <v type="int" >       98 </v>
   <v type="int" >       99 </v>
   <v type="int" >      100 </v>
   <v type="int" >      101 </v>
   <v type="int" >      102 </v>
   <v type="int" >      103 </v>
   <v type="int" >      104 </v>
   <v type="int" >      105 </v>
   <v type="int" >      106 </v>
   <v type="int" >      107 </v>
   <v type="int" >      108 </v>
   <v type="int" >      109 </v>
   <v type="int" >      110 </v>
   <v type="int" >      111 </v>
   <v type="int" >      112 </v>
   <v type="int" >      113 </v>
   <v type="int" >      114 </v>
   <v type="int" >      115 </v>
   <v type="int" >      116 </v>
   <v type="int" >      117 </v>
   <v type="int" >      118 </v>
   <v type="int" >      119 </v>
   <v type="int" >      120 </v>
   <v type="int" >      121 </v>
   <v type="int" >      122 </v>
   <v type="int" >      123 </v>
   <v type="int" >      124 </v>
   <v type="int" >      125 </v>
   <v type="int" >      126 </v>
   <v type="int" >      127 </v>
   <v type="int" >      128 </v>
   <v type="int" >      129 </v>
   <v type="int" >      130 </v>
   <v type="int" >      131 </v>
   <v type="int" >      132 </v>
   <v type="int" >      133 </v>
   <v type="int" >      134 </v>
   <v type="int" >      135 </v>
   <v type="int" >      136 </v>
   <v type="int" >      137 </v>
   <v type="int" >      138 </v>
   <v type="int" >      139 </v>
   <v type="int" >      140 </v>
   <v type="int" >      141 </v>
   <v type="int" >      142 </v>
   <v type="int" >      143 </v>
   <v type="int" >      144 </v>
   <v type="int" >      145 </v>
   <v type="int" >      146 </v>
  </varray>
 </primitive_cell>
 <kpoints>
  <generation param="Monkhorst-Pack">
   <v type="int" name="divisions">       3        3        1 </v>
   <v name="usershift">      0.00000000       0.00000000       0.00000000 </v>
   <v name="genvec1">      0.33333333       0.00000000       0.00000000 </v>
   <v name="genvec2">      0.00000000       0.33333333       0.00000000 </v>
   <v name="genvec3">      0.00000000       0.00000000       1.00000000 </v>
   <v name="shift">      0.00000000       0.00000000       0.00000000 </v>
  </generation>
  <varray name="kpointlist" >
   <v>       0.00000000       0.00000000       0.00000000 </v>
   <v>       0.33333333       0.00000000       0.00000000 </v>
   <v>       0.00000000       0.33333333       0.00000000 </v>
   <v>       0.33333333       0.33333333       0.00000000 </v>
  </varray>
  <varray name="weights" >
   <v>       0.11111111 </v>
   <v>       0.22222222 </v>
   <v>       0.22222222 </v>
   <v>       0.44444444 </v>
  </varray>
 </kpoints>
 <parameters>
  <separator name="general" >
   <i type="string" name="SYSTEM">unknown system</i>
   <i type="logical" name="LCOMPAT"> F  </i>
  </separator>
  <separator name="electronic" >
   <i type="string" name="PREC">normal</i>
   <i name="ENMAX">    400.00000000</i>
   <i name="ENAUG">    586.98000000</i>
   <i name="EDIFF">      0.00020000</i>
   <i type="int" name="IALGO">    38</i>
   <i type="int" name="IWAVPR">    11</i>
   <i type="int" name="NBANDS">  1024</i>
   <i type="int" name="NBANDSLOW">    -1</i>
   <i type="int" name="NBANDSHIGH">    -1</i>
   <i name="NELECT">   1586.00000000</i>
   <i type="int" name="TURBO">     0</i>
   <i type="int" name="IRESTART">     0</i>
   <i type="int" name="NREBOOT">     0</i>
   <i type="int" name="NMIN">     0</i>
   <i name="EREF">      0.00000000</i>
   <separator name="electronic smearing" >
    <i type="int" name="ISMEAR">     1</i>
    <i name="SIGMA">      0.20000000</i>
    <i name="KSPACING">      0.50000000</i>
    <i type="logical" name="KGAMMA"> T  </i>
    <i type="logical" name="KBLOWUP"> T  </i>
   </separator>
   <separator name="electronic projectors" >
    <i type="logical" name="LREAL"> F  </i>
    <v name="ROPT">      0.00000000      0.00000000</v>
    <i type="int" name="LMAXPAW">  -100</i>
    <i type="int" name="LMAXMIX">     2</i>
    <i type="logical" name="NLSPLINE"> F  </i>
   </separator>
   <separator name="electronic startup" >
    <i type="int" name="ISTART">     0</i>
    <i type="int" name="ICHARG">     2</i>
    <i type="int" name="INIWAV">     1</i>
   </separator>
   <separator name="electronic spin" >
    <i type="int" name="ISPIN">     2</i>
    <i type="logical" name="LNONCOLLINEAR"> F  </i>
    <v name="MAGMOM">      1.00000000      1.00000000      1.00000000      1.00000000      1.00000000      1.00000000      1.00000000      1.00000000      1.00000000      1.00000000      1.00000000      1.00000000      1.00000000      1.00000000      1.00000000      1.00000000      1.00000000      1.00000000      1.00000000      1.00000000
      1.00000000      1.00000000      1.00000000      1.00000000      1.00000000      1.00000000      1.00000000      1.00000000      1.00000000      1.00000000      1.00000000      1.00000000      1.00000000      1.00000000      1.00000000      1.00000000      1.00000000      1.00000000      1.00000000      1.00000000
      1.00000000      1.00000000      1.00000000      1.00000000      1.00000000      1.00000000      1.00000000      1.00000000      1.00000000      1.00000000      1.00000000      1.00000000      1.00000000      1.00000000      1.00000000      1.00000000      1.00000000      1.00000000      1.00000000      1.00000000
      1.00000000      1.00000000      1.00000000      1.00000000      1.00000000      1.00000000      1.00000000      1.00000000      1.00000000      1.00000000      1.00000000      1.00000000      1.00000000      1.00000000      1.00000000      1.00000000      1.00000000      1.00000000      1.00000000      1.00000000
      1.00000000      1.00000000      1.00000000      1.00000000      1.00000000      1.00000000      1.00000000      1.00000000      1.00000000      1.00000000      1.00000000      1.00000000      1.00000000      1.00000000      1.00000000      1.00000000      1.00000000      1.00000000      1.00000000      1.00000000
      1.00000000      1.00000000      1.00000000      1.00000000      1.00000000      1.00000000      1.00000000      1.00000000      1.00000000      1.00000000      1.00000000      1.00000000      1.00000000      1.00000000      1.00000000      1.00000000      1.00000000      1.00000000      1.00000000      1.00000000
      1.00000000      1.00000000      1.00000000      1.00000000      1.00000000      1.00000000      1.00000000      1.00000000      1.00000000      1.00000000      1.00000000      1.00000000      1.00000000      1.00000000      1.00000000      1.00000000      1.00000000      1.00000000      1.00000000      1.00000000
      1.00000000      1.00000000      1.00000000      1.00000000      1.00000000      1.00000000</v>
    <i name="NUPDOWN">     -1.00000000</i>
    <i type="logical" name="LSORBIT"> F  </i>
    <v name="SAXIS">      0.00000000      0.00000000      1.00000000</v>
    <i type="logical" name="LSPIRAL"> F  </i>
    <v name="QSPIRAL">      0.00000000      0.00000000      0.00000000</v>
    <i type="logical" name="LZEROZ"> F  </i>
   </separator>
   <separator name="electronic exchange-correlation" >
    <i type="logical" name="LASPH"> F  </i>
    <i type="logical" name="LMETAGGA"> F  </i>
   </separator>
   <separator name="electronic convergence" >
    <i type="int" name="NELM">    60</i>
    <i type="int" name="NELMDL">    -5</i>
    <i type="int" name="NELMIN">     2</i>
    <i name="ENINI">    400.00000000</i>
    <separator name="electronic convergence detail" >
     <i type="logical" name="LDIAG"> T  </i>
     <i type="logical" name="LSUBROT"> F  </i>
     <i name="WEIMIN">      0.00100000</i>
     <i name="EBREAK">      0.00000005</i>
     <i name="DEPER">      0.30000000</i>
     <i type="int" name="NRMM">     4</i>
     <i name="TIME">      0.40000000</i>
    </separator>
   </separator>
   <separator name="electronic mixer" >
    <i name="AMIX">      0.40000000</i>
    <i name="BMIX">      1.00000000</i>
    <i name="AMIN">      0.10000000</i>
    <i name="AMIX_MAG">      1.60000000</i>
    <i name="BMIX_MAG">      1.00000000</i>
    <separator name="electronic mixer details" >
     <i type="int" name="IMIX">     4</i>
     <i type="logical" name="MIXFIRST"> F  </i>
     <i type="int" name="MAXMIX">   -45</i>
     <i name="WC">    100.00000000</i>
     <i type="int" name="INIMIX">     1</i>
     <i type="int" name="MIXPRE">     1</i>
     <i type="int" name="MREMOVE">     5</i>
    </separator>
   </separator>
   <separator name="electronic dipolcorrection" >
    <i type="logical" name="LDIPOL"> F  </i>
    <i type="logical" name="LMONO"> F  </i>
    <i type="int" name="IDIPOL">     0</i>
    <i name="EPSILON">      1.00000000</i>
    <v name="DIPOL">   -100.00000000   -100.00000000   -100.00000000</v>
    <i name="EFIELD">      0.00000000</i>
   </separator>
  </separator>
  <separator name="grids" >
   <i type="int" name="NGX">    54</i>
   <i type="int" name="NGY">    54</i>
   <i type="int" name="NGZ">   140</i>
   <i type="int" name="NGXF">   108</i>
   <i type="int" name="NGYF">   108</i>
   <i type="int" name="NGZF">   280</i>
   <i type="logical" name="ADDGRID"> F  </i>
  </separator>
  <separator name="ionic" >
   <i type="int" name="NSW">   800</i>
   <i type="int" name="IBRION">     2</i>
   <i type="int" name="MDALGO">     0</i>
   <i type="int" name="ISIF">     2</i>
   <i name="PSTRESS">      0.00000000</i>
   <i name="EDIFFG">     -0.03000000</i>
   <i type="int" name="NFREE">     1</i>
   <i name="POTIM">      0.50000000</i>
   <i name="SMASS">     -3.00000000</i>
   <i name="SCALEE">      1.00000000</i>
  </separator>
  <separator name="ionic md" >
   <i name="TEBEG">      0.00010000</i>
   <i name="TEEND">      0.00010000</i>
   <i type="int" name="NBLOCK">     1</i>
   <i type="int" name="KBLOCK">   800</i>
   <i type="int" name="NPACO">   256</i>
   <i name="APACO">     10.00000000</i>
  </separator>
  <separator name="symmetry" >
   <i type="int" name="ISYM">     1</i>
   <i name="SYMPREC">      0.00001000</i>
  </separator>
  <separator name="dos" >
   <i type="int" name="LORBIT">     0</i>
   <v name="RWIGS">     -1.00000000     -1.00000000</v>
   <i type="int" name="NEDOS">   301</i>
   <i name="EMIN">     10.00000000</i>
   <i name="EMAX">    -10.00000000</i>
   <i name="EFERMI">      0.00000000</i>
  </separator>
  <separator name="writing" >
   <i type="int" name="NWRITE">     2</i>
   <i type="logical" name="LWAVE"> F  </i>
   <i type="logical" name="LDOWNSAMPLE"> F  </i>
   <i type="logical" name="LCHARG"> F  </i>
   <i type="logical" name="LPARD"> F  </i>
   <i type="logical" name="LVTOT"> F  </i>
   <i type="logical" name="LVHAR"> F  </i>
   <i type="logical" name="LELF"> F  </i>
   <i type="logical" name="LOPTICS"> F  </i>
   <v name="STM">      0.00000000      0.00000000      0.00000000      0.00000000      0.00000000      0.00000000      0.00000000</v>
  </separator>
  <separator name="performance" >
   <i type="int" name="NPAR">     4</i>
   <i type="int" name="NSIM">     4</i>
   <i type="int" name="NBLK">    -1</i>
   <i type="logical" name="LPLANE"> T  </i>
   <i type="logical" name="LSCALAPACK"> T  </i>
   <i type="logical" name="LSCAAWARE"> F  </i>
   <i type="logical" name="LSCALU"> F  </i>
   <i type="logical" name="LASYNC"> F  </i>
   <i type="logical" name="LORBITALREAL"> F  </i>
  </separator>
  <separator name="miscellaneous" >
   <i type="int" name="IDIOT">     3</i>
   <i type="int" name="PHON_NSTRUCT">    -1</i>
   <i type="logical" name="LMUSIC"> F  </i>
   <v name="POMASS">     63.54600000      1.00000000</v>
   <v name="DARWINR">      0.00000000      0.00000000</v>
   <v name="DARWINV">      1.00000000      1.00000000</v>
   <i type="logical" name="LCORR"> T  </i>
  </separator>
  <i type="logical" name="GGA_COMPAT"> T  </i>
  <i type="logical" name="LBERRY"> F  </i>
  <i type="int" name="ICORELEVEL">     0</i>
  <i type="logical" name="LDAU"> F  </i>
  <i type="int" name="I_CONSTRAINED_M">     0</i>
  <separator name="electronic exchange-correlation" >
   <i type="string" name="GGA">PE</i>
   <i type="int" name="VOSKOWN">     0</i>
   <i type="logical" name="LHFCALC"> F  </i>
   <i type="string" name="PRECFOCK"></i>
   <i type="logical" name="LSYMGRAD"> F  </i>
   <i type="logical" name="LHFONE"> F  </i>
   <i type="logical" name="LRHFCALC"> F  </i>
   <i type="logical" name="LTHOMAS"> F  </i>
   <i type="logical" name="LMODELHF"> F  </i>
   <i type="logical" name="LFOCKACE"> F  </i>
   <i name="ENCUT4O">     -1.00000000</i>
   <i type="int" name="EXXOEP">     0</i>
   <i type="int" name="FOURORBIT">     0</i>
   <i name="AEXX">      0.00000000</i>
   <i name="HFALPHA">      0.00000000</i>
   <i name="MCALPHA">      0.00000000</i>
   <i name="ALDAX">      1.00000000</i>
   <i name="AGGAX">      1.00000000</i>
   <i name="ALDAC">      1.00000000</i>
   <i name="AGGAC">      1.00000000</i>
   <i type="int" name="NKREDX">     1</i>
   <i type="int" name="NKREDY">     1</i>
   <i type="int" name="NKREDZ">     1</i>
   <i type="logical" name="SHIFTRED"> F  </i>
   <i type="logical" name="ODDONLY"> F  </i>
   <i type="logical" name="EVENONLY"> F  </i>
   <i type="int" name="LMAXFOCK">     0</i>
   <i type="int" name="NMAXFOCKAE">     0</i>
   <i type="logical" name="LFOCKAEDFT"> F  </i>
   <i name="HFSCREEN">      0.00000000</i>
   <i name="HFSCREENC">      0.00000000</i>
   <i type="int" name="NBANDSGWLOW">     0</i>
  </separator>
  <separator name="vdW DFT" >
   <i type="logical" name="LUSE_VDW"> F  </i>
   <i name="Zab_VDW">     -0.84910000</i>
   <i name="PARAM1">      0.12340000</i>
   <i name="PARAM2">      1.00000000</i>
   <i name="PARAM3">      0.00000000</i>
  </separator>
  <separator name="model GW" >
   <i type="int" name="MODEL_GW">     0</i>
   <i name="MODEL_EPS0">     13.50244245</i>
   <i name="MODEL_ALPHA">      1.00000000</i>
  </separator>
  <separator name="linear response parameters" >
   <i type="logical" name="LEPSILON"> F  </i>
   <i type="logical" name="LRPA"> F  </i>
   <i type="logical" name="LNABLA"> F  </i>
   <i type="logical" name="LVEL"> F  </i>
   <i name="CSHIFT">      0.10000000</i>
   <i name="OMEGAMAX">     -1.00000000</i>
   <i name="DEG_THRESHOLD">      0.00200000</i>
   <i name="RTIME">     -0.10000000</i>
   <i name="WPLASMAI">      0.00000000</i>
   <v name="DFIELD">      0.00000000      0.00000000      0.00000000</v>
   <v name="WPLASMA">      0.00000000      0.00000000      0.00000000      0.00000000      0.00000000      0.00000000      0.00000000      0.00000000      0.00000000</v>
  </separator>
  <separator name="orbital magnetization" >
   <i type="logical" name="NUCIND"> F  </i>
   <v name="MAGPOS">      0.00000000      0.00000000      0.00000000</v>
   <i type="logical" name="LNICSALL"> T  </i>
   <i type="logical" name="ORBITALMAG"> F  </i>
   <i type="logical" name="LMAGBLOCH"> F  </i>
   <i type="logical" name="LCHIMAG"> F  </i>
   <i type="logical" name="LGAUGE"> T  </i>
   <i type="int" name="MAGATOM">     0</i>
   <v name="MAGDIPOL">      0.00000000      0.00000000      0.00000000</v>
   <v name="AVECCONST">      0.00000000      0.00000000      0.00000000</v>
  </separator>
  <separator name="response functions" >
   <i type="logical" name="LFINITE_TEMPERATURE"> F  </i>
   <i type="logical" name="LADDER"> F  </i>
   <i type="logical" name="LRPAFORCE"> F  </i>
   <i type="logical" name="LFXC"> F  </i>
   <i type="logical" name="LHARTREE"> T  </i>
   <i type="int" name="IBSE">     0</i>
   <v type="int" name="KPOINT">    -1     0     0     0</v>
   <i type="logical" name="LTCTC"> F  </i>
   <i type="logical" name="LTCTE"> F  </i>
   <i type="logical" name="LTETE"> F  </i>
   <i type="logical" name="LTRIPLET"> F  </i>
   <i type="logical" name="LFXCEPS"> F  </i>
   <i type="logical" name="LFXHEG"> F  </i>
   <i type="int" name="NATURALO">     2</i>
   <i type="logical" name="LHOLEGF"> F  </i>
   <i type="logical" name="L2ORDER"> F  </i>
   <i type="logical" name="LDMP1"> F  </i>
   <i type="logical" name="LMP2LT"> F  </i>
   <i type="logical" name="LSMP2LT"> F  </i>
   <i type="logical" name="LGWLF"> F  </i>
   <i name="ENCUTGW">     -2.00000000</i>
   <i name="ENCUTGWSOFT">     -2.00000000</i>
   <i name="ENCUTLF">     -1.00000000</i>
   <i type="logical" name="LESF_SPLINES"> F  </i>
   <i type="int" name="LMAXMP2">    -1</i>
   <i name="SCISSOR">      0.00000000</i>
   <i type="int" name="NOMEGA">     0</i>
   <i type="int" name="NOMEGAR">     0</i>
   <i type="int" name="NBANDSGW">    -1</i>
   <i type="int" name="NBANDSO">    -1</i>
   <i type="int" name="NBANDSV">    -1</i>
   <i type="int" name="NELMGW">     1</i>
   <i type="int" name="NELMHF">     1</i>
   <i type="int" name="DIM">     3</i>
   <i type="int" name="IESPILON">     4</i>
   <i type="int" name="ANTIRES">     0</i>
   <i name="OMEGAMAX">    -30.00000000</i>
   <i name="OMEGAMIN">    -30.00000000</i>
   <i name="OMEGATL">   -200.00000000</i>
   <i type="int" name="OMEGAGRID">     0</i>
   <i name="CSHIFT">     -0.10000000</i>
   <i type="logical" name="LSELFENERGY"> F  </i>
   <i type="logical" name="LSPECTRAL"> F  </i>
   <i type="logical" name="LSPECTRALGW"> F  </i>
   <i type="logical" name="LSINGLES"> F  </i>
   <i type="logical" name="LFERMIGW"> F  </i>
   <i type="logical" name="ODDONLYGW"> F  </i>
   <i type="logical" name="EVENONLYGW"> F  </i>
   <i type="int" name="NKREDLFX">     1</i>
   <i type="int" name="NKREDLFY">     1</i>
   <i type="int" name="NKREDLFZ">     1</i>
   <i type="int" name="MAXMEM">  2800</i>
   <i type="int" name="TELESCOPE">     0</i>
   <i type="int" name="NTAUPAR">    -1</i>
   <i type="int" name="NOMEGAPAR">    -1</i>
   <i name="DAMP_NEWTON">      0.80000001</i>
   <i name="LAMBDA">      1.00000000</i>
  </separator>
  <separator name="External order field" >
   <i name="OFIELD_KAPPA">      0.00000000</i>
   <v name="OFIELD_K">      0.00000000      0.00000000      0.00000000</v>
   <i name="OFIELD_Q6_NEAR">      0.00000000</i>
   <i name="OFIELD_Q6_FAR">      0.00000000</i>
   <i name="OFIELD_A">      0.00000000</i>
  </separator>
  <separator name="optional k-points parameters" >
   <i type="int" name="KPOINTS_OPT_MODE">     1</i>
   <i type="logical" name="LKPOINTS_OPT"> F  </i>
  </separator>
 </parameters>
 <atominfo>
  <atoms>     146 </atoms>
  <types>       2 </types>
  <array name="atoms" >
   <dimension dim="1">ion</dimension>
   <field type="string">element</field>
   <field type="int">atomtype</field>
   <set>
    <rc><c>Cu</c><c>   1</c></rc>
    <rc><c>Cu</c><c>   1</c></rc>
    <rc><c>Cu</c><c>   1</c></rc>
    <rc><c>Cu</c><c>   1</c></rc>
    <rc><c>Cu</c><c>   1</c></rc>
    <rc><c>Cu</c><c>   1</c></rc>
    <rc><c>Cu</c><c>   1</c></rc>
    <rc><c>Cu</c><c>   1</c></rc>
    <rc><c>Cu</c><c>   1</c></rc>
    <rc><c>Cu</c><c>   1</c></rc>
    <rc><c>Cu</c><c>   1</c></rc>
    <rc><c>Cu</c><c>   1</c></rc>
    <rc><c>Cu</c><c>   1</c></rc>
    <rc><c>Cu</c><c>   1</c></rc>
    <rc><c>Cu</c><c>   1</c></rc>
    <rc><c>Cu</c><c>   1</c></rc>
    <rc><c>Cu</c><c>   1</c></rc>
    <rc><c>Cu</c><c>   1</c></rc>
    <rc><c>Cu</c><c>   1</c></rc>
    <rc><c>Cu</c><c>   1</c></rc>
    <rc><c>Cu</c><c>   1</c></rc>
    <rc><c>Cu</c><c>   1</c></rc>
    <rc><c>Cu</c><c>   1</c></rc>
    <rc><c>Cu</c><c>   1</c></rc>
    <rc><c>Cu</c><c>   1</c></rc>
    <rc><c>Cu</c><c>   1</c></rc>
    <rc><c>Cu</c><c>   1</c></rc>
    <rc><c>Cu</c><c>   1</c></rc>
    <rc><c>Cu</c><c>   1</c></rc>
    <rc><c>Cu</c><c>   1</c></rc>
    <rc><c>Cu</c><c>   1</c></rc>
    <rc><c>Cu</c><c>   1</c></rc>
    <rc><c>Cu</c><c>   1</c></rc>
    <rc><c>Cu</c><c>   1</c></rc>
    <rc><c>Cu</c><c>   1</c></rc>
    <rc><c>Cu</c><c>   1</c></rc>
    <rc><c>Cu</c><c>   1</c></rc>
    <rc><c>Cu</c><c>   1</c></rc>
    <rc><c>Cu</c><c>   1</c></rc>
    <rc><c>Cu</c><c>   1</c></rc>
    <rc><c>Cu</c><c>   1</c></rc>
    <rc><c>Cu</c><c>   1</c></rc>
    <rc><c>Cu</c><c>   1</c></rc>
    <rc><c>Cu</c><c>   1</c></rc>
    <rc><c>Cu</c><c>   1</c></rc>
    <rc><c>Cu</c><c>   1</c></rc>
    <rc><c>Cu</c><c>   1</c></rc>
    <rc><c>Cu</c><c>   1</c></rc>
    <rc><c>Cu</c><c>   1</c></rc>
    <rc><c>Cu</c><c>   1</c></rc>
    <rc><c>Cu</c><c>   1</c></rc>
    <rc><c>Cu</c><c>   1</c></rc>
    <rc><c>Cu</c><c>   1</c></rc>
    <rc><c>Cu</c><c>   1</c></rc>
    <rc><c>Cu</c><c>   1</c></rc>
    <rc><c>Cu</c><c>   1</c></rc>
    <rc><c>Cu</c><c>   1</c></rc>
    <rc><c>Cu</c><c>   1</c></rc>
    <rc><c>Cu</c><c>   1</c></rc>
    <rc><c>Cu</c><c>   1</c></rc>
    <rc><c>Cu</c><c>   1</c></rc>
    <rc><c>Cu</c><c>   1</c></rc>
    <rc><c>Cu</c><c>   1</c></rc>
    <rc><c>Cu</c><c>   1</c></rc>
    <rc><c>Cu</c><c>   1</c></rc>
    <rc><c>Cu</c><c>   1</c></rc>
    <rc><c>Cu</c><c>   1</c></rc>
    <rc><c>Cu</c><c>   1</c></rc>
    <rc><c>Cu</c><c>   1</c></rc>
    <rc><c>Cu</c><c>   1</c></rc>
    <rc><c>Cu</c><c>   1</c></rc>
    <rc><c>Cu</c><c>   1</c></rc>
    <rc><c>Cu</c><c>   1</c></rc>
    <rc><c>Cu</c><c>   1</c></rc>
    <rc><c>Cu</c><c>   1</c></rc>
    <rc><c>Cu</c><c>   1</c></rc>
    <rc><c>Cu</c><c>   1</c></rc>
    <rc><c>Cu</c><c>   1</c></rc>
    <rc><c>Cu</c><c>   1</c></rc>
    <rc><c>Cu</c><c>   1</c></rc>
    <rc><c>Cu</c><c>   1</c></rc>
    <rc><c>Cu</c><c>   1</c></rc>
    <rc><c>Cu</c><c>   1</c></rc>
    <rc><c>Cu</c><c>   1</c></rc>
    <rc><c>Cu</c><c>   1</c></rc>
    <rc><c>Cu</c><c>   1</c></rc>
    <rc><c>Cu</c><c>   1</c></rc>
    <rc><c>Cu</c><c>   1</c></rc>
    <rc><c>Cu</c><c>   1</c></rc>
    <rc><c>Cu</c><c>   1</c></rc>
    <rc><c>Cu</c><c>   1</c></rc>
    <rc><c>Cu</c><c>   1</c></rc>
    <rc><c>Cu</c><c>   1</c></rc>
    <rc><c>Cu</c><c>   1</c></rc>
    <rc><c>Cu</c><c>   1</c></rc>
    <rc><c>Cu</c><c>   1</c></rc>
    <rc><c>Cu</c><c>   1</c></rc>
    <rc><c>Cu</c><c>   1</c></rc>
    <rc><c>Cu</c><c>   1</c></rc>
    <rc><c>Cu</c><c>   1</c></rc>
    <rc><c>Cu</c><c>   1</c></rc>
    <rc><c>Cu</c><c>   1</c></rc>
    <rc><c>Cu</c><c>   1</c></rc>
    <rc><c>Cu</c><c>   1</c></rc>
    <rc><c>Cu</c><c>   1</c></rc>
    <rc><c>Cu</c><c>   1</c></rc>
    <rc><c>Cu</c><c>   1</c></rc>
    <rc><c>Cu</c><c>   1</c></rc>
    <rc><c>Cu</c><c>   1</c></rc>
    <rc><c>Cu</c><c>   1</c></rc>
    <rc><c>Cu</c><c>   1</c></rc>
    <rc><c>Cu</c><c>   1</c></rc>
    <rc><c>Cu</c><c>   1</c></rc>
    <rc><c>Cu</c><c>   1</c></rc>
    <rc><c>Cu</c><c>   1</c></rc>
    <rc><c>Cu</c><c>   1</c></rc>
    <rc><c>Cu</c><c>   1</c></rc>
    <rc><c>Cu</c><c>   1</c></rc>
    <rc><c>Cu</c><c>   1</c></rc>
    <rc><c>Cu</c><c>   1</c></rc>
    <rc><c>Cu</c><c>   1</c></rc>
    <rc><c>Cu</c><c>   1</c></rc>
    <rc><c>Cu</c><c>   1</c></rc>
    <rc><c>Cu</c><c>   1</c></rc>
    <rc><c>Cu</c><c>   1</c></rc>
    <rc><c>Cu</c><c>   1</c></rc>
    <rc><c>Cu</c><c>   1</c></rc>
    <rc><c>Cu</c><c>   1</c></rc>
    <rc><c>Cu</c><c>   1</c></rc>
    <rc><c>Cu</c><c>   1</c></rc>
    <rc><c>Cu</c><c>   1</c></rc>
    <rc><c>Cu</c><c>   1</c></rc>
    <rc><c>Cu</c><c>   1</c></rc>
    <rc><c>Cu</c><c>   1</c></rc>
    <rc><c>Cu</c><c>   1</c></rc>
    <rc><c>Cu</c><c>   1</c></rc>
    <rc><c>Cu</c><c>   1</c></rc>
    <rc><c>Cu</c><c>   1</c></rc>
    <rc><c>Cu</c><c>   1</c></rc>
    <rc><c>Cu</c><c>   1</c></rc>
    <rc><c>Cu</c><c>   1</c></rc>
    <rc><c>Cu</c><c>   1</c></rc>
    <rc><c>Cu</c><c>   1</c></rc>
    <rc><c>Cu</c><c>   1</c></rc>
    <rc><c>H </c><c>   2</c></rc>
    <rc><c>H </c><c>   2</c></rc>
   </set>
  </array>
  <array name="atomtypes" >
   <dimension dim="1">type</dimension>
   <field type="int">atomspertype</field>
   <field type="string">element</field>
   <field>mass</field>
   <field>valence</field>
   <field type="string">pseudopotential</field>
   <set>
    <rc><c> 144</c><c>Cu</c><c>     63.54600000</c><c>     11.00000000</c><c>  PAW_PBE Cu 22Jun2005                  </c></rc>
    <rc><c>   2</c><c>H </c><c>      1.00000000</c><c>      1.00000000</c><c>  PAW_PBE H 15Jun2001                   </c></rc>
   </set>
  </array>
 </atominfo>
 <structure name="initialpos" >
  <crystal>
   <varray name="basis" >
    <v>      10.89000034       0.00000000       0.00000000 </v>
    <v>       0.00000000      10.89000034       0.00000000 </v>
    <v>       0.00000000       0.00000000      27.70499992 </v>
   </varray>
   <i name="volume">   3285.59432860 </i>
   <varray name="rec_basis" >
    <v>       0.09182736       0.00000000       0.00000000 </v>
    <v>       0.00000000       0.09182736       0.00000000 </v>
    <v>       0.00000000       0.00000000       0.03609457 </v>
   </varray>
  </crystal>
  <varray name="positions" >
   <v>       0.00000000       0.00000000       0.00000000 </v>
   <v>       0.00000000       0.33333333       0.00000000 </v>
   <v>       0.00000000       0.66666667       0.00000000 </v>
   <v>       0.33333333       0.00000000       0.00000000 </v>
   <v>       0.33333333       0.33333333       0.00000000 </v>
   <v>       0.33333333       0.66666667       0.00000000 </v>
   <v>       0.66666667       0.00000000       0.00000000 </v>
   <v>       0.66666667       0.33333333       0.00000000 </v>
   <v>       0.66666667       0.66666667       0.00000000 </v>
   <v>       0.16666667       0.16666667       0.00000000 </v>
   <v>       0.16666667       0.50000000       0.00000000 </v>
   <v>       0.16666667       0.83333333       0.00000000 </v>
   <v>       0.50000000       0.16666667       0.00000000 </v>
   <v>       0.50000000       0.50000000       0.00000000 </v>
   <v>       0.50000000       0.83333333       0.00000000 </v>
   <v>       0.83333333       0.16666667       0.00000000 </v>
   <v>       0.83333333       0.50000000       0.00000000 </v>
   <v>       0.83333333       0.83333333       0.00000000 </v>
   <v>       0.00000000       0.16666667       0.06551164 </v>
   <v>       0.00000000       0.50000000       0.06551164 </v>
   <v>       0.00000000       0.83333333       0.06551164 </v>
   <v>       0.33333333       0.16666667       0.06551164 </v>
   <v>       0.33333333       0.50000000       0.06551164 </v>
   <v>       0.33333333       0.83333333       0.06551164 </v>
   <v>       0.66666667       0.16666667       0.06551164 </v>
   <v>       0.66666667       0.50000000       0.06551164 </v>
   <v>       0.66666667       0.83333333       0.06551164 </v>
   <v>       0.16666667       0.00000000       0.06551164 </v>
   <v>       0.16666667       0.33333333       0.06551164 </v>
   <v>       0.16666667       0.66666667       0.06551164 </v>
   <v>       0.50000000       0.00000000       0.06551164 </v>
   <v>       0.50000000       0.33333333       0.06551164 </v>
   <v>       0.50000000       0.66666667       0.06551164 </v>
   <v>       0.83333333       0.00000000       0.06551164 </v>
   <v>       0.83333333       0.33333333       0.06551164 </v>
   <v>       0.83333333       0.66666667       0.06551164 </v>
   <v>       0.00000000       0.00000000       0.13119553 </v>
   <v>       0.00000000       0.33333333       0.13119553 </v>
   <v>       0.00000000       0.66666667       0.13119553 </v>
   <v>       0.33333333       0.00000000       0.13119553 </v>
   <v>       0.33333333       0.33333333       0.13119553 </v>
   <v>       0.33333333       0.66666667       0.13119553 </v>
   <v>       0.66666667       0.00000000       0.13119553 </v>
   <v>       0.66666667       0.33333333       0.13119553 </v>
   <v>       0.66666667       0.66666667       0.13119553 </v>
   <v>       0.16666667       0.16666667       0.13119553 </v>
   <v>       0.16666667       0.50000000       0.13119553 </v>
   <v>       0.16666667       0.83333333       0.13119553 </v>
   <v>       0.50000000       0.16666667       0.13119553 </v>
   <v>       0.50000000       0.50000000       0.13119553 </v>
   <v>       0.50000000       0.83333333       0.13119553 </v>
   <v>       0.83333333       0.16666667       0.13119553 </v>
   <v>       0.83333333       0.50000000       0.13119553 </v>
   <v>       0.83333333       0.83333333       0.13119553 </v>
   <v>       0.00000000       0.16666667       0.19620680 </v>
   <v>       0.00000000       0.50000000       0.19620680 </v>
   <v>       0.00000000       0.83333333       0.19620680 </v>
   <v>       0.33333333       0.16666667       0.19620680 </v>
   <v>       0.33333333       0.50000000       0.19620680 </v>
   <v>       0.33333333       0.83333333       0.19620680 </v>
   <v>       0.66666667       0.16666667       0.19620680 </v>
   <v>       0.66666667       0.50000000       0.19620680 </v>
   <v>       0.66666667       0.83333333       0.19620680 </v>
   <v>       0.16666667       0.00000000       0.19620680 </v>
   <v>       0.16666667       0.33333333       0.19620680 </v>
   <v>       0.16666667       0.66666667       0.19620680 </v>
   <v>       0.50000000       0.00000000       0.19620680 </v>
   <v>       0.50000000       0.33333333       0.19620680 </v>
   <v>       0.50000000       0.66666667       0.19620680 </v>
   <v>       0.83333333       0.00000000       0.19620680 </v>
   <v>       0.83333333       0.33333333       0.19620680 </v>
   <v>       0.83333333       0.66666667       0.19620680 </v>
   <v>       0.00000000       0.00000000       0.25873860 </v>
   <v>       0.00000000       0.33333333       0.25873860 </v>
   <v>       0.00000000       0.66666667       0.25873860 </v>
   <v>       0.33333333       0.00000000       0.25873860 </v>
   <v>       0.33333333       0.33333333       0.25873860 </v>
   <v>       0.33333333       0.66666667       0.25873860 </v>
   <v>       0.66666667       0.00000000       0.25873860 </v>
   <v>       0.66666667       0.33333333       0.25873860 </v>
   <v>       0.66666667       0.66666667       0.25873860 </v>
   <v>       0.16666667       0.16666667       0.25873860 </v>
   <v>       0.16666667       0.50000000       0.25873860 </v>
   <v>       0.16666667       0.83333333       0.25873860 </v>
   <v>       0.50000000       0.16666667       0.25873860 </v>
   <v>       0.50000000       0.50000000       0.25873860 </v>
   <v>       0.50000000       0.83333333       0.25873860 </v>
   <v>       0.83333333       0.16666667       0.25873860 </v>
   <v>       0.83333333       0.50000000       0.25873860 </v>
   <v>       0.83333333       0.83333333       0.25873860 </v>
   <v>       0.00000000       0.16666667       0.32119954 </v>
   <v>       0.00000000       0.50000000       0.32119954 </v>
   <v>       0.00000000       0.83333333       0.32119954 </v>
   <v>       0.33333333       0.16666667       0.32119954 </v>
   <v>       0.33333333       0.50000000       0.32119954 </v>
   <v>       0.33333333       0.83333333       0.32119954 </v>
   <v>       0.66666667       0.16666667       0.32119954 </v>
   <v>       0.66666667       0.50000000       0.32119954 </v>
   <v>       0.66666667       0.83333333       0.32119954 </v>
   <v>       0.16666667       0.00000000       0.32119954 </v>
   <v>       0.16666667       0.33333333       0.32119954 </v>
   <v>       0.16666667       0.66666667       0.32119954 </v>
   <v>       0.50000000       0.00000000       0.32119954 </v>
   <v>       0.50000000       0.33333333       0.32119954 </v>
   <v>       0.50000000       0.66666667       0.32119954 </v>
   <v>       0.83333333       0.00000000       0.32119954 </v>
   <v>       0.83333333       0.33333333       0.32119954 </v>
   <v>       0.83333333       0.66666667       0.32119954 </v>
   <v>       0.00000000       0.00000000       0.38476372 </v>
   <v>       0.00000000       0.33333333       0.38476372 </v>
   <v>       0.00000000       0.66666667       0.38476372 </v>
   <v>       0.33333333       0.00000000       0.38476372 </v>
   <v>       0.33333333       0.33333333       0.38476372 </v>
   <v>       0.33333333       0.66666667       0.38476372 </v>
   <v>       0.66666667       0.00000000       0.38476372 </v>
   <v>       0.66666667       0.33333333       0.38476372 </v>
   <v>       0.66666667       0.66666667       0.38476372 </v>
   <v>       0.16666667       0.16666667       0.38476372 </v>
   <v>       0.16666667       0.50000000       0.38476372 </v>
   <v>       0.16666667       0.83333333       0.38476372 </v>
   <v>       0.50000000       0.16666667       0.38476372 </v>
   <v>       0.50000000       0.50000000       0.38476372 </v>
   <v>       0.50000000       0.83333333       0.38476372 </v>
   <v>       0.83333333       0.16666667       0.38476372 </v>
   <v>       0.83333333       0.50000000       0.38476372 </v>
   <v>       0.83333333       0.83333333       0.38476372 </v>
   <v>       0.00000000       0.16666667       0.44736473 </v>
   <v>       0.00000000       0.50000000       0.44736473 </v>
   <v>       0.00000000       0.83333333       0.44736473 </v>
   <v>       0.33333333       0.16666667       0.44736473 </v>
   <v>       0.33333333       0.50000000       0.44736473 </v>
   <v>       0.33333333       0.83333333       0.44736473 </v>
   <v>       0.66666667       0.16666667       0.44736473 </v>
   <v>       0.66666667       0.50000000       0.44736473 </v>
   <v>       0.66666667       0.83333333       0.44736473 </v>
   <v>       0.16666667       0.00000000       0.44736473 </v>
   <v>       0.16666667       0.33333333       0.44736473 </v>
   <v>       0.16666667       0.66666667       0.44736473 </v>
   <v>       0.50000000       0.00000000       0.44736473 </v>
   <v>       0.50000000       0.33333333       0.44736473 </v>
   <v>       0.50000000       0.66666667       0.44736473 </v>
   <v>       0.83333333       0.00000000       0.44736473 </v>
   <v>       0.83333333       0.33333333       0.44736473 </v>
   <v>       0.83333333       0.66666667       0.44736473 </v>
   <v>       0.33333333       0.33333333       0.50150658 </v>
   <v>       0.33333333       0.38177242       0.52054652 </v>
  </varray>
  <varray name="selective"  type="logical" >
   <v type="logical" >  F  F  F </v>
   <v type="logical" >  F  F  F </v>
   <v type="logical" >  F  F  F </v>
   <v type="logical" >  F  F  F </v>
   <v type="logical" >  F  F  F </v>
   <v type="logical" >  F  F  F </v>
   <v type="logical" >  F  F  F </v>
   <v type="logical" >  F  F  F </v>
   <v type="logical" >  F  F  F </v>
   <v type="logical" >  F  F  F </v>
   <v type="logical" >  F  F  F </v>
   <v type="logical" >  F  F  F </v>
   <v type="logical" >  F  F  F </v>
   <v type="logical" >  F  F  F </v>
   <v type="logical" >  F  F  F </v>
   <v type="logical" >  F  F  F </v>
   <v type="logical" >  F  F  F </v>
   <v type="logical" >  F  F  F </v>
   <v type="logical" >  F  F  F </v>
   <v type="logical" >  F  F  F </v>
   <v type="logical" >  F  F  F </v>
   <v type="logical" >  F  F  F </v>
   <v type="logical" >  F  F  F </v>
   <v type="logical" >  F  F  F </v>
   <v type="logical" >  F  F  F </v>
   <v type="logical" >  F  F  F </v>
   <v type="logical" >  F  F  F </v>
   <v type="logical" >  F  F  F </v>
   <v type="logical" >  F  F  F </v>
   <v type="logical" >  F  F  F </v>
   <v type="logical" >  F  F  F </v>
   <v type="logical" >  F  F  F </v>
   <v type="logical" >  F  F  F </v>
   <v type="logical" >  F  F  F </v>
   <v type="logical" >  F  F  F </v>
   <v type="logical" >  F  F  F </v>
   <v type="logical" >  F  F  F </v>
   <v type="logical" >  F  F  F </v>
   <v type="logical" >  F  F  F </v>
   <v type="logical" >  F  F  F </v>
   <v type="logical" >  F  F  F </v>
   <v type="logical" >  F  F  F </v>
   <v type="logical" >  F  F  F </v>
   <v type="logical" >  F  F  F </v>
   <v type="logical" >  F  F  F </v>
   <v type="logical" >  F  F  F </v>
   <v type="logical" >  F  F  F </v>
   <v type="logical" >  F  F  F </v>
   <v type="logical" >  F  F  F </v>
   <v type="logical" >  F  F  F </v>
   <v type="logical" >  F  F  F </v>
   <v type="logical" >  F  F  F </v>
   <v type="logical" >  F  F  F </v>
   <v type="logical" >  F  F  F </v>
   <v type="logical" >  T  T  T </v>
   <v type="logical" >  T  T  T </v>
   <v type="logical" >  T  T  T </v>
   <v type="logical" >  T  T  T </v>
   <v type="logical" >  T  T  T </v>
   <v type="logical" >  T  T  T </v>
   <v type="logical" >  T  T  T </v>
   <v type="logical" >  T  T  T </v>
   <v type="logical" >  T  T  T </v>
   <v type="logical" >  T  T  T </v>
   <v type="logical" >  T  T  T </v>
   <v type="logical" >  T  T  T </v>
   <v type="logical" >  T  T  T </v>
   <v type="logical" >  T  T  T </v>
   <v type="logical" >  T  T  T </v>
   <v type="logical" >  T  T  T </v>
   <v type="logical" >  T  T  T </v>
   <v type="logical" >  T  T  T </v>
   <v type="logical" >  T  T  T </v>
   <v type="logical" >  T  T  T </v>
   <v type="logical" >  T  T  T </v>
   <v type="logical" >  T  T  T </v>
   <v type="logical" >  T  T  T </v>
   <v type="logical" >  T  T  T </v>
   <v type="logical" >  T  T  T </v>
   <v type="logical" >  T  T  T </v>
   <v type="logical" >  T  T  T </v>
   <v type="logical" >  T  T  T </v>
   <v type="logical" >  T  T  T </v>
   <v type="logical" >  T  T  T </v>
   <v type="logical" >  T  T  T </v>
   <v type="logical" >  T  T  T </v>
   <v type="logical" >  T  T  T </v>
   <v type="logical" >  T  T  T </v>
   <v type="logical" >  T  T  T </v>
   <v type="logical" >  T  T  T </v>
   <v type="logical" >  T  T  T </v>
   <v type="logical" >  T  T  T </v>
   <v type="logical" >  T  T  T </v>
   <v type="logical" >  T  T  T </v>
   <v type="logical" >  T  T  T </v>
   <v type="logical" >  T  T  T </v>
   <v type="logical" >  T  T  T </v>
   <v type="logical" >  T  T  T </v>
   <v type="logical" >  T  T  T </v>
   <v type="logical" >  T  T  T </v>
   <v type="logical" >  T  T  T </v>
   <v type="logical" >  T  T  T </v>
   <v type="logical" >  T  T  T </v>
   <v type="logical" >  T  T  T </v>
   <v type="logical" >  T  T  T </v>
   <v type="logical" >  T  T  T </v>
   <v type="logical" >  T  T  T </v>
   <v type="logical" >  T  T  T </v>
   <v type="logical" >  T  T  T </v>
   <v type="logical" >  T  T  T </v>
   <v type="logical" >  T  T  T </v>
   <v type="logical" >  T  T  T </v>
   <v type="logical" >  T  T  T </v>
   <v type="logical" >  T  T  T </v>
   <v type="logical" >  T  T  T </v>
   <v type="logical" >  T  T  T </v>
   <v type="logical" >  T  T  T </v>
   <v type="logical" >  T  T  T </v>
   <v type="logical" >  T  T  T </v>
   <v type="logical" >  T  T  T </v>
   <v type="logical" >  T  T  T </v>
   <v type="logical" >  T  T  T </v>
   <v type="logical" >  T  T  T </v>
   <v type="logical" >  T  T  T </v>
   <v type="logical" >  T  T  T </v>
   <v type="logical" >  T  T  T </v>
   <v type="logical" >  T  T  T </v>
   <v type="logical" >  T  T  T </v>
   <v type="logical" >  T  T  T </v>
   <v type="logical" >  T  T  T </v>
   <v type="logical" >  T  T  T </v>
   <v type="logical" >  T  T  T </v>
   <v type="logical" >  T  T  T </v>
   <v type="logical" >  T  T  T </v>
   <v type="logical" >  T  T  T </v>
   <v type="logical" >  T  T  T </v>
   <v type="logical" >  T  T  T </v>
   <v type="logical" >  T  T  T </v>
   <v type="logical" >  T  T  T </v>
   <v type="logical" >  T  T  T </v>
   <v type="logical" >  T  T  T </v>
   <v type="logical" >  T  T  T </v>
   <v type="logical" >  T  T  T </v>
   <v type="logical" >  T  T  T </v>
   <v type="logical" >  T  T  T </v>
   <v type="logical" >  T  T  T </v>
  </varray>
  <nose>
   <v>      -3.00000000       0.00000000       0.00010000       0.00010000 </v>
  </nose>
 </structure>
 <calculation>
  <scstep>
   <time name="dav">  757.72  767.38</time>
   <time name="total">  758.05  767.71</time>
   <energy>
    <i name="alphaZ">   4623.72760507 </i>
    <i name="ewald"> 915941.50191294 </i>
    <i name="hartreedc">**************** </i>
    <i name="XCdc">   6596.99626574 </i>
    <i name="pawpsdc"> 176849.62809079 </i>
    <i name="pawaedc">-192088.21954245 </i>
    <i name="eentropy">      0.01228749 </i>
    <i name="bandstr">  16004.38450084 </i>
    <i name="atom"> 200322.85745410 </i>
    <i name="e_fr_energy">  15539.21890553 </i>
    <i name="e_wo_entrp">  15539.20661805 </i>
    <i name="e_0_energy">  15539.21480971 </i>
   </energy>
  </scstep>
  <scstep>
   <time name="dav">  753.97  763.70</time>
   <time name="total">  753.98  763.72</time>
   <energy>
    <i name="e_fr_energy">   2262.60662890 </i>
    <i name="e_wo_entrp">   2262.62959482 </i>
    <i name="e_0_energy">   2262.61428421 </i>
   </energy>
  </scstep>
  <scstep>
   <time name="dav">  754.03  762.78</time>
   <time name="total">  754.05  762.79</time>
   <energy>
    <i name="e_fr_energy">   -387.09432326 </i>
    <i name="e_wo_entrp">   -387.19399763 </i>
    <i name="e_0_energy">   -387.12754805 </i>
   </energy>
  </scstep>
  <scstep>
   <time name="dav">  806.70  818.39</time>
   <time name="total">  806.72  818.40</time>
   <energy>
    <i name="e_fr_energy">   -608.18862459 </i>
    <i name="e_wo_entrp">   -608.43740653 </i>
    <i name="e_0_energy">   -608.27155190 </i>
   </energy>
  </scstep>
  <scstep>
   <time name="dav">  816.81  827.69</time>
   <time name="total">  821.05  831.96</time>
   <energy>
    <i name="e_fr_energy">   -614.12712630 </i>
    <i name="e_wo_entrp">   -614.37739360 </i>
    <i name="e_0_energy">   -614.21054873 </i>
   </energy>
  </scstep>
  <scstep>
   <time name="dav">  803.62  813.54</time>
   <time name="total">  808.09  818.06</time>
   <energy>
    <i name="e_fr_energy">   -500.59007604 </i>
    <i name="e_wo_entrp">   -500.53060309 </i>
    <i name="e_0_energy">   -500.57025173 </i>
   </energy>
  </scstep>
  <scstep>
   <time name="dav">  814.96  826.75</time>
   <time name="total">  819.33  831.16</time>
   <energy>
    <i name="e_fr_energy">   -441.25844843 </i>
    <i name="e_wo_entrp">   -441.20208328 </i>
    <i name="e_0_energy">   -441.23966005 </i>
   </energy>
  </scstep>
  <scstep>
   <time name="dav">  846.81  858.70</time>
   <time name="total">  851.31  863.24</time>
   <energy>
    <i name="e_fr_energy">   -442.37687029 </i>
    <i name="e_wo_entrp">   -442.34045912 </i>
    <i name="e_0_energy">   -442.36473323 </i>
   </energy>
  </scstep>
  <scstep>
   <time name="dav">  953.68  964.52</time>
   <time name="total">  958.20  969.08</time>
   <energy>
    <i name="e_fr_energy">   -433.92322131 </i>
    <i name="e_wo_entrp">   -433.91471184 </i>
    <i name="e_0_energy">   -433.92038482 </i>
   </energy>
  </scstep>
  <scstep>
   <time name="dav"> 1040.84 1050.73</time>
   <time name="total"> 1045.29 1055.21</time>
   <energy>
    <i name="e_fr_energy">   -429.76049663 </i>
    <i name="e_wo_entrp">   -429.66524704 </i>
    <i name="e_0_energy">   -429.72874677 </i>
   </energy>
  </scstep>
  <scstep>
   <time name="dav"> 1135.22 1149.47</time>
   <time name="total"> 1139.72 1154.01</time>
   <energy>
    <i name="e_fr_energy">   -432.97780105 </i>
    <i name="e_wo_entrp">   -432.88045120 </i>
    <i name="e_0_energy">   -432.94535110 </i>
   </energy>
  </scstep>
  <scstep>
   <time name="dav">  825.03  832.99</time>
   <time name="total">  829.49  837.49</time>
   <energy>
    <i name="e_fr_energy">   -442.97796696 </i>
    <i name="e_wo_entrp">   -442.88460417 </i>
    <i name="e_0_energy">   -442.94684603 </i>
   </energy>
  </scstep>
  <scstep>
   <time name="dav">  874.30  882.96</time>
   <time name="total">  878.81  887.52</time>
   <energy>
    <i name="e_fr_energy">   -446.09234416 </i>
    <i name="e_wo_entrp">   -446.02646315 </i>
    <i name="e_0_energy">   -446.07038383 </i>
   </energy>
  </scstep>
  <scstep>
   <time name="dav">  824.59  832.68</time>
   <time name="total">  829.12  837.25</time>
   <energy>
    <i name="e_fr_energy">   -456.65047175 </i>
    <i name="e_wo_entrp">   -456.60301283 </i>
    <i name="e_0_energy">   -456.63465211 </i>
   </energy>
  </scstep>
  <scstep>
   <time name="dav">  902.10  911.38</time>
   <time name="total">  907.56  916.90</time>
   <energy>
    <i name="e_fr_energy">   -468.93362005 </i>
    <i name="e_wo_entrp">   -468.95190961 </i>
    <i name="e_0_energy">   -468.93971657 </i>
   </energy>
  </scstep>
  <scstep>
   <time name="dav">  922.09  931.12</time>
   <time name="total">  926.57  935.64</time>
   <energy>
    <i name="e_fr_energy">   -488.55582244 </i>
    <i name="e_wo_entrp">   -488.66700101 </i>
    <i name="e_0_energy">   -488.59288196 </i>
   </energy>
  </scstep>
  <scstep>
   <time name="dav">  824.86  832.86</time>
   <time name="total">  829.48  837.53</time>
   <energy>
    <i name="e_fr_energy">   -495.47052824 </i>
    <i name="e_wo_entrp">   -495.60593177 </i>
    <i name="e_0_energy">   -495.51566275 </i>
   </energy>
  </scstep>
  <scstep>
   <time name="dav">  840.29  848.17</time>
   <time name="total">  844.78  852.71</time>
   <energy>
    <i name="e_fr_energy">   -498.85951160 </i>
    <i name="e_wo_entrp">   -499.00580025 </i>
    <i name="e_0_energy">   -498.90827448 </i>
   </energy>
  </scstep>
  <scstep>
   <time name="dav">  943.59  952.37</time>
   <time name="total">  948.75  957.59</time>
   <energy>
    <i name="e_fr_energy">   -505.75013367 </i>
    <i name="e_wo_entrp">   -505.89668019 </i>
    <i name="e_0_energy">   -505.79898251 </i>
   </energy>
  </scstep>
  <scstep>
   <time name="dav">  786.43  793.97</time>
   <time name="total">  790.92  798.51</time>
   <energy>
    <i name="e_fr_energy">   -510.34324608 </i>
    <i name="e_wo_entrp">   -510.46869013 </i>
    <i name="e_0_energy">   -510.38506076 </i>
   </energy>
  </scstep>
  <scstep>
   <time name="dav">  992.27 1001.58</time>
   <time name="total">  996.78 1006.12</time>
   <energy>
    <i name="e_fr_energy">   -513.32246775 </i>
    <i name="e_wo_entrp">   -513.43802769 </i>
    <i name="e_0_energy">   -513.36098773 </i>
   </energy>
  </scstep>
  <scstep>
   <time name="dav">  875.81  884.07</time>
   <time name="total">  880.28  888.59</time>
   <energy>
    <i name="e_fr_energy">   -515.47651468 </i>
    <i name="e_wo_entrp">   -515.59259493 </i>
    <i name="e_0_energy">   -515.51520810 </i>
   </energy>
  </scstep>
  <scstep>
   <time name="dav">  867.31  875.55</time>
   <time name="total">  871.70  879.99</time>
   <energy>
    <i name="e_fr_energy">   -516.83633806 </i>
    <i name="e_wo_entrp">   -516.94990500 </i>
    <i name="e_0_energy">   -516.87419371 </i>
   </energy>
  </scstep>
  <scstep>
   <time name="dav">  930.95  940.00</time>
   <time name="total">  935.47  944.56</time>
   <energy>
    <i name="e_fr_energy">   -518.29292245 </i>
    <i name="e_wo_entrp">   -518.41546811 </i>
    <i name="e_0_energy">   -518.33377100 </i>
   </energy>
  </scstep>
  <scstep>
   <time name="dav">  855.35  863.40</time>
   <time name="total">  859.88  867.97</time>
   <energy>
    <i name="e_fr_energy">   -519.33364869 </i>
    <i name="e_wo_entrp">   -519.44974605 </i>
    <i name="e_0_energy">   -519.37234781 </i>
   </energy>
  </scstep>
  <scstep>
   <time name="dav">  825.41  833.04</time>
   <time name="total">  829.91  837.59</time>
   <energy>
    <i name="e_fr_energy">   -519.95692327 </i>
    <i name="e_wo_entrp">   -520.07220635 </i>
    <i name="e_0_energy">   -519.99535096 </i>
   </energy>
  </scstep>
  <scstep>
   <time name="dav">  796.68  804.01</time>
   <time name="total">  801.16  808.53</time>
   <energy>
    <i name="e_fr_energy">   -520.67818279 </i>
    <i name="e_wo_entrp">   -520.79300785 </i>
    <i name="e_0_energy">   -520.71645781 </i>
   </energy>
  </scstep>
  <scstep>
   <time name="dav">  903.16  911.76</time>
   <time name="total">  907.67  916.31</time>
   <energy>
    <i name="e_fr_energy">   -521.42167986 </i>
    <i name="e_wo_entrp">   -521.53542181 </i>
    <i name="e_0_energy">   -521.45959384 </i>
   </energy>
  </scstep>
  <scstep>
   <time name="dav">  854.60  862.83</time>
   <time name="total">  859.13  867.41</time>
   <energy>
    <i name="e_fr_energy">   -521.48970298 </i>
    <i name="e_wo_entrp">   -521.60514212 </i>
    <i name="e_0_energy">   -521.52818269 </i>
   </energy>
  </scstep>
  <scstep>
   <time name="dav">  856.56  864.86</time>
   <time name="total">  861.09  869.43</time>
   <energy>
    <i name="e_fr_energy">   -521.51478638 </i>
    <i name="e_wo_entrp">   -521.63099650 </i>
    <i name="e_0_energy">   -521.55352308 </i>
   </energy>
  </scstep>
  <scstep>
   <time name="dav">  796.29  803.86</time>
   <time name="total">  800.73  808.34</time>
   <energy>
    <i name="e_fr_energy">   -521.52904173 </i>
    <i name="e_wo_entrp">   -521.64427990 </i>
    <i name="e_0_energy">   -521.56745445 </i>
   </energy>
  </scstep>
  <scstep>
   <time name="dav">  587.16  592.70</time>
   <time name="total">  591.73  597.30</time>
   <energy>
    <i name="e_fr_energy">   -521.53055063 </i>
    <i name="e_wo_entrp">   -521.64551382 </i>
    <i name="e_0_energy">   -521.56887169 </i>
   </energy>
  </scstep>
  <scstep>
   <time name="dav">  563.35  569.34</time>
   <time name="total">  567.83  573.86</time>
   <energy>
    <i name="e_fr_energy">   -521.53095773 </i>
    <i name="e_wo_entrp">   -521.64611089 </i>
    <i name="e_0_energy">   -521.56934212 </i>
   </energy>
  </scstep>
  <scstep>
   <time name="dav">  555.88  561.44</time>
   <time name="total">  556.18  561.76</time>
   <energy>
    <i name="alphaZ">   4623.72760507 </i>
    <i name="ewald"> 915941.50191294 </i>
    <i name="hartreedc">**************** </i>
    <i name="XCdc">   6429.40711726 </i>
    <i name="pawpsdc"> 188993.62599121 </i>
    <i name="pawaedc">-204513.24578285 </i>
    <i name="eentropy">      0.11519872 </i>
    <i name="bandstr">  -1761.08193674 </i>
    <i name="atom"> 200322.85745410 </i>
    <i name="e_fr_energy">   -521.53095400 </i>
    <i name="e_wo_entrp">   -521.64615271 </i>
    <i name="e_0_energy">   -521.56935357 </i>
   </energy>
  </scstep>
  <structure>
   <crystal>
    <varray name="basis" >
     <v>      10.89000034       0.00000000       0.00000000 </v>
     <v>       0.00000000      10.89000034       0.00000000 </v>
     <v>       0.00000000       0.00000000      27.70499992 </v>
    </varray>
    <i name="volume">   3285.59432860 </i>
    <varray name="rec_basis" >
     <v>       0.09182736       0.00000000       0.00000000 </v>
     <v>       0.00000000       0.09182736       0.00000000 </v>
     <v>       0.00000000       0.00000000       0.03609457 </v>
    </varray>
   </crystal>
   <varray name="positions" >
    <v>       0.00000000       0.00000000       0.00000000 </v>
    <v>       0.00000000       0.33333333       0.00000000 </v>
    <v>       0.00000000       0.66666667       0.00000000 </v>
    <v>       0.33333333       0.00000000       0.00000000 </v>
    <v>       0.33333333       0.33333333       0.00000000 </v>
    <v>       0.33333333       0.66666667       0.00000000 </v>
    <v>       0.66666667       0.00000000       0.00000000 </v>
    <v>       0.66666667       0.33333333       0.00000000 </v>
    <v>       0.66666667       0.66666667       0.00000000 </v>
    <v>       0.16666667       0.16666667       0.00000000 </v>
    <v>       0.16666667       0.50000000       0.00000000 </v>
    <v>       0.16666667       0.83333333       0.00000000 </v>
    <v>       0.50000000       0.16666667       0.00000000 </v>
    <v>       0.50000000       0.50000000       0.00000000 </v>
    <v>       0.50000000       0.83333333       0.00000000 </v>
    <v>       0.83333333       0.16666667       0.00000000 </v>
    <v>       0.83333333       0.50000000       0.00000000 </v>
    <v>       0.83333333       0.83333333       0.00000000 </v>
    <v>       0.00000000       0.16666667       0.06551164 </v>
    <v>       0.00000000       0.50000000       0.06551164 </v>
    <v>       0.00000000       0.83333333       0.06551164 </v>
    <v>       0.33333333       0.16666667       0.06551164 </v>
    <v>       0.33333333       0.50000000       0.06551164 </v>
    <v>       0.33333333       0.83333333       0.06551164 </v>
    <v>       0.66666667       0.16666667       0.06551164 </v>
    <v>       0.66666667       0.50000000       0.06551164 </v>
    <v>       0.66666667       0.83333333       0.06551164 </v>
    <v>       0.16666667       0.00000000       0.06551164 </v>
    <v>       0.16666667       0.33333333       0.06551164 </v>
    <v>       0.16666667       0.66666667       0.06551164 </v>
    <v>       0.50000000       0.00000000       0.06551164 </v>
    <v>       0.50000000       0.33333333       0.06551164 </v>
    <v>       0.50000000       0.66666667       0.06551164 </v>
    <v>       0.83333333       0.00000000       0.06551164 </v>
    <v>       0.83333333       0.33333333       0.06551164 </v>
    <v>       0.83333333       0.66666667       0.06551164 </v>
    <v>       0.00000000       0.00000000       0.13119553 </v>
    <v>       0.00000000       0.33333333       0.13119553 </v>
    <v>       0.00000000       0.66666667       0.13119553 </v>
    <v>       0.33333333       0.00000000       0.13119553 </v>
    <v>       0.33333333       0.33333333       0.13119553 </v>
    <v>       0.33333333       0.66666667       0.13119553 </v>
    <v>       0.66666667       0.00000000       0.13119553 </v>
    <v>       0.66666667       0.33333333       0.13119553 </v>
    <v>       0.66666667       0.66666667       0.13119553 </v>
    <v>       0.16666667       0.16666667       0.13119553 </v>
    <v>       0.16666667       0.50000000       0.13119553 </v>
    <v>       0.16666667       0.83333333       0.13119553 </v>
    <v>       0.50000000       0.16666667       0.13119553 </v>
    <v>       0.50000000       0.50000000       0.13119553 </v>
    <v>       0.50000000       0.83333333       0.13119553 </v>
    <v>       0.83333333       0.16666667       0.13119553 </v>
    <v>       0.83333333       0.50000000       0.13119553 </v>
    <v>       0.83333333       0.83333333       0.13119553 </v>
    <v>       0.00000000       0.16666667       0.19620680 </v>
    <v>       0.00000000       0.50000000       0.19620680 </v>
    <v>       0.00000000       0.83333333       0.19620680 </v>
    <v>       0.33333333       0.16666667       0.19620680 </v>
    <v>       0.33333333       0.50000000       0.19620680 </v>
    <v>       0.33333333       0.83333333       0.19620680 </v>
    <v>       0.66666667       0.16666667       0.19620680 </v>
    <v>       0.66666667       0.50000000       0.19620680 </v>
    <v>       0.66666667       0.83333333       0.19620680 </v>
    <v>       0.16666667       0.00000000       0.19620680 </v>
    <v>       0.16666667       0.33333333       0.19620680 </v>
    <v>       0.16666667       0.66666667       0.19620680 </v>
    <v>       0.50000000       0.00000000       0.19620680 </v>
    <v>       0.50000000       0.33333333       0.19620680 </v>
    <v>       0.50000000       0.66666667       0.19620680 </v>
    <v>       0.83333333       0.00000000       0.19620680 </v>
    <v>       0.83333333       0.33333333       0.19620680 </v>
    <v>       0.83333333       0.66666667       0.19620680 </v>
    <v>       0.00000000       0.00000000       0.25873860 </v>
    <v>       0.00000000       0.33333333       0.25873860 </v>
    <v>       0.00000000       0.66666667       0.25873860 </v>
    <v>       0.33333333       0.00000000       0.25873860 </v>
    <v>       0.33333333       0.33333333       0.25873860 </v>
    <v>       0.33333333       0.66666667       0.25873860 </v>
    <v>       0.66666667       0.00000000       0.25873860 </v>
    <v>       0.66666667       0.33333333       0.25873860 </v>
    <v>       0.66666667       0.66666667       0.25873860 </v>
    <v>       0.16666667       0.16666667       0.25873860 </v>
    <v>       0.16666667       0.50000000       0.25873860 </v>
    <v>       0.16666667       0.83333333       0.25873860 </v>
    <v>       0.50000000       0.16666667       0.25873860 </v>
    <v>       0.50000000       0.50000000       0.25873860 </v>
    <v>       0.50000000       0.83333333       0.25873860 </v>
    <v>       0.83333333       0.16666667       0.25873860 </v>
    <v>       0.83333333       0.50000000       0.25873860 </v>
    <v>       0.83333333       0.83333333       0.25873860 </v>
    <v>       0.00000000       0.16666667       0.32119954 </v>
    <v>       0.00000000       0.50000000       0.32119954 </v>
    <v>       0.00000000       0.83333333       0.32119954 </v>
    <v>       0.33333333       0.16666667       0.32119954 </v>
    <v>       0.33333333       0.50000000       0.32119954 </v>
    <v>       0.33333333       0.83333333       0.32119954 </v>
    <v>       0.66666667       0.16666667       0.32119954 </v>
    <v>       0.66666667       0.50000000       0.32119954 </v>
    <v>       0.66666667       0.83333333       0.32119954 </v>
    <v>       0.16666667       0.00000000       0.32119954 </v>
    <v>       0.16666667       0.33333333       0.32119954 </v>
    <v>       0.16666667       0.66666667       0.32119954 </v>
    <v>       0.50000000       0.00000000       0.32119954 </v>
    <v>       0.50000000       0.33333333       0.32119954 </v>
    <v>       0.50000000       0.66666667       0.32119954 </v>
    <v>       0.83333333       0.00000000       0.32119954 </v>
    <v>       0.83333333       0.33333333       0.32119954 </v>
    <v>       0.83333333       0.66666667       0.32119954 </v>
    <v>       0.00000000       0.00000000       0.38476372 </v>
    <v>       0.00000000       0.33333333       0.38476372 </v>
    <v>       0.00000000       0.66666667       0.38476372 </v>
    <v>       0.33333333       0.00000000       0.38476372 </v>
    <v>       0.33333333       0.33333333       0.38476372 </v>
    <v>       0.33333333       0.66666667       0.38476372 </v>
    <v>       0.66666667       0.00000000       0.38476372 </v>
    <v>       0.66666667       0.33333333       0.38476372 </v>
    <v>       0.66666667       0.66666667       0.38476372 </v>
    <v>       0.16666667       0.16666667       0.38476372 </v>
    <v>       0.16666667       0.50000000       0.38476372 </v>
    <v>       0.16666667       0.83333333       0.38476372 </v>
    <v>       0.50000000       0.16666667       0.38476372 </v>
    <v>       0.50000000       0.50000000       0.38476372 </v>
    <v>       0.50000000       0.83333333       0.38476372 </v>
    <v>       0.83333333       0.16666667       0.38476372 </v>
    <v>       0.83333333       0.50000000       0.38476372 </v>
    <v>       0.83333333       0.83333333       0.38476372 </v>
    <v>       0.00000000       0.16666667       0.44736473 </v>
    <v>       0.00000000       0.50000000       0.44736473 </v>
    <v>       0.00000000       0.83333333       0.44736473 </v>
    <v>       0.33333333       0.16666667       0.44736473 </v>
    <v>       0.33333333       0.50000000       0.44736473 </v>
    <v>       0.33333333       0.83333333       0.44736473 </v>
    <v>       0.66666667       0.16666667       0.44736473 </v>
    <v>       0.66666667       0.50000000       0.44736473 </v>
    <v>       0.66666667       0.83333333       0.44736473 </v>
    <v>       0.16666667       0.00000000       0.44736473 </v>
    <v>       0.16666667       0.33333333       0.44736473 </v>
    <v>       0.16666667       0.66666667       0.44736473 </v>
    <v>       0.50000000       0.00000000       0.44736473 </v>
    <v>       0.50000000       0.33333333       0.44736473 </v>
    <v>       0.50000000       0.66666667       0.44736473 </v>
    <v>       0.83333333       0.00000000       0.44736473 </v>
    <v>       0.83333333       0.33333333       0.44736473 </v>
    <v>       0.83333333       0.66666667       0.44736473 </v>
    <v>       0.33333333       0.33333333       0.50150658 </v>
    <v>       0.33333333       0.38177242       0.52054652 </v>
   </varray>
  </structure>
  <varray name="forces" >
   <v>      -0.00066585       0.00039198       0.30945133 </v>
   <v>       0.00218909      -0.00066240       0.30999455 </v>
   <v>       0.00196142      -0.00020767       0.30948253 </v>
   <v>       0.00000000       0.00214804       0.30956819 </v>
   <v>       0.00000000      -0.00058142       0.30884291 </v>
   <v>       0.00000000      -0.00246901       0.30995419 </v>
   <v>       0.00066585       0.00039198       0.30945133 </v>
   <v>      -0.00218909      -0.00066240       0.30999455 </v>
   <v>      -0.00196142      -0.00020767       0.30948253 </v>
   <v>      -0.00117590      -0.00024248       0.31058798 </v>
   <v>      -0.00082870       0.00181795       0.30956912 </v>
   <v>      -0.00099539      -0.00118106       0.30892478 </v>
   <v>       0.00117590      -0.00024248       0.31058798 </v>
   <v>       0.00082870       0.00181795       0.30956912 </v>
   <v>       0.00099539      -0.00118106       0.30892478 </v>
   <v>       0.00000000      -0.00107446       0.30917124 </v>
   <v>       0.00000000       0.00030781       0.30948180 </v>
   <v>       0.00000000       0.00190285       0.30924202 </v>
   <v>       0.00359864      -0.00081285      -0.07991276 </v>
   <v>       0.00205353       0.00058934      -0.07898317 </v>
   <v>      -0.00144242      -0.00078438      -0.07477294 </v>
   <v>       0.00000000       0.00300618      -0.07680238 </v>
   <v>       0.00000000      -0.00020108      -0.07576060 </v>
   <v>       0.00000000       0.00288317      -0.08187611 </v>
   <v>      -0.00359864      -0.00081285      -0.07991276 </v>
   <v>      -0.00205353       0.00058934      -0.07898317 </v>
   <v>       0.00144242      -0.00078438      -0.07477294 </v>
   <v>      -0.00024576       0.00192606      -0.07897879 </v>
   <v>       0.00188179      -0.00061800      -0.07585384 </v>
   <v>      -0.00094189      -0.00352519      -0.08040592 </v>
   <v>       0.00024576       0.00192606      -0.07897879 </v>
   <v>      -0.00188179      -0.00061800      -0.07585384 </v>
   <v>       0.00094189      -0.00352519      -0.08040592 </v>
   <v>       0.00000000      -0.00180854      -0.07465641 </v>
   <v>       0.00000000       0.00131241      -0.08178671 </v>
   <v>       0.00000000       0.00130590      -0.07460247 </v>
   <v>      -0.00066060       0.00159558      -0.00540060 </v>
   <v>       0.00251035      -0.00236982      -0.00575382 </v>
   <v>       0.00274368      -0.00075642      -0.00593558 </v>
   <v>       0.00000000       0.00272714      -0.00235326 </v>
   <v>       0.00000000      -0.00360880      -0.00942118 </v>
   <v>       0.00000000      -0.00340246      -0.00871169 </v>
   <v>       0.00066060       0.00159558      -0.00540060 </v>
   <v>      -0.00251035      -0.00236982      -0.00575382 </v>
   <v>      -0.00274368      -0.00075642      -0.00593558 </v>
   <v>      -0.00274690       0.00118155      -0.00737597 </v>
   <v>      -0.00148094       0.00513616      -0.00785320 </v>
   <v>       0.00081866      -0.00243390       0.00180327 </v>
   <v>       0.00274690       0.00118155      -0.00737597 </v>
   <v>       0.00148094       0.00513616      -0.00785320 </v>
   <v>      -0.00081866      -0.00243390       0.00180327 </v>
   <v>       0.00000000       0.00020656       0.00024739 </v>
   <v>       0.00000000      -0.00172758       0.00375122 </v>
   <v>       0.00000000       0.00105691      -0.00630170 </v>
   <v>       0.00358985      -0.00009098      -0.26301275 </v>
   <v>       0.00276386       0.00042533      -0.26138003 </v>
   <v>      -0.00240102      -0.00027673      -0.27028121 </v>
   <v>       0.00000000       0.00090947      -0.25814056 </v>
   <v>       0.00000000      -0.00133085      -0.26726618 </v>
   <v>       0.00000000       0.00038561      -0.27669919 </v>
   <v>      -0.00358985      -0.00009098      -0.26301275 </v>
   <v>      -0.00276386       0.00042533      -0.26138003 </v>
   <v>       0.00240102      -0.00027673      -0.27028121 </v>
   <v>      -0.00004920       0.00288580      -0.26625927 </v>
   <v>       0.00074186      -0.00012835      -0.26282281 </v>
   <v>      -0.00071292      -0.00251679      -0.25743324 </v>
   <v>       0.00004920       0.00288580      -0.26625927 </v>
   <v>      -0.00074186      -0.00012835      -0.26282281 </v>
   <v>       0.00071292      -0.00251679      -0.25743324 </v>
   <v>       0.00000000      -0.00289521      -0.26851523 </v>
   <v>       0.00000000       0.00028574      -0.27672616 </v>
   <v>       0.00000000       0.00223003      -0.27189775 </v>
   <v>       0.00131502       0.00131056      -0.02993852 </v>
   <v>      -0.00923769      -0.00114538      -0.04264887 </v>
   <v>       0.00025324      -0.00022689      -0.03265265 </v>
   <v>       0.00000000      -0.01243133      -0.04423730 </v>
   <v>       0.00000000       0.00147288      -0.00458589 </v>
   <v>       0.00000000       0.00525420      -0.04165855 </v>
   <v>      -0.00131502       0.00131056      -0.02993852 </v>
   <v>       0.00923769      -0.00114538      -0.04264887 </v>
   <v>      -0.00025324      -0.00022689      -0.03265265 </v>
   <v>      -0.00239860      -0.00176213      -0.02842361 </v>
   <v>      -0.00021006       0.00155849      -0.01794553 </v>
   <v>       0.00150276       0.00363768      -0.02988631 </v>
   <v>       0.00239860      -0.00176213      -0.02842361 </v>
   <v>       0.00021006       0.00155849      -0.01794553 </v>
   <v>      -0.00150276       0.00363768      -0.02988631 </v>
   <v>       0.00000000       0.00125036      -0.02827037 </v>
   <v>       0.00000000      -0.00153420      -0.03252383 </v>
   <v>       0.00000000      -0.00067321      -0.02750827 </v>
   <v>       0.00204335      -0.00125979       0.05578845 </v>
   <v>       0.00387479       0.00257992       0.05491021 </v>
   <v>      -0.00115281      -0.00228903       0.04877073 </v>
[...]
    <v>       0.66666667       0.33333333       0.00000000 </v>
    <v>       0.66666667       0.66666667       0.00000000 </v>
    <v>       0.16666667       0.16666667       0.00000000 </v>
    <v>       0.16666667       0.50000000       0.00000000 </v>
    <v>       0.16666667       0.83333333       0.00000000 </v>
    <v>       0.50000000       0.16666667       0.00000000 </v>
    <v>       0.50000000       0.50000000       0.00000000 </v>
    <v>       0.50000000       0.83333333       0.00000000 </v>
    <v>       0.83333333       0.16666667       0.00000000 </v>
    <v>       0.83333333       0.50000000       0.00000000 </v>
    <v>       0.83333333       0.83333333       0.00000000 </v>
    <v>       0.00000000       0.16666667       0.06551164 </v>
    <v>       0.00000000       0.50000000       0.06551164 </v>
    <v>       0.00000000       0.83333333       0.06551164 </v>
    <v>       0.33333333       0.16666667       0.06551164 </v>
    <v>       0.33333333       0.50000000       0.06551164 </v>
    <v>       0.33333333       0.83333333       0.06551164 </v>
    <v>       0.66666667       0.16666667       0.06551164 </v>
    <v>       0.66666667       0.50000000       0.06551164 </v>
    <v>       0.66666667       0.83333333       0.06551164 </v>
    <v>       0.16666667       0.00000000       0.06551164 </v>
    <v>       0.16666667       0.33333333       0.06551164 </v>
    <v>       0.16666667       0.66666667       0.06551164 </v>
    <v>       0.50000000       0.00000000       0.06551164 </v>
    <v>       0.50000000       0.33333333       0.06551164 </v>
    <v>       0.50000000       0.66666667       0.06551164 </v>
    <v>       0.83333333       0.00000000       0.06551164 </v>
    <v>       0.83333333       0.33333333       0.06551164 </v>
    <v>       0.83333333       0.66666667       0.06551164 </v>
    <v>       0.00000000       0.00000000       0.13119553 </v>
    <v>       0.00000000       0.33333333       0.13119553 </v>
    <v>       0.00000000       0.66666667       0.13119553 </v>
    <v>       0.33333333       0.00000000       0.13119553 </v>
    <v>       0.33333333       0.33333333       0.13119553 </v>
    <v>       0.33333333       0.66666667       0.13119553 </v>
    <v>       0.66666667       0.00000000       0.13119553 </v>
    <v>       0.66666667       0.33333333       0.13119553 </v>
    <v>       0.66666667       0.66666667       0.13119553 </v>
    <v>       0.16666667       0.16666667       0.13119553 </v>
    <v>       0.16666667       0.50000000       0.13119553 </v>
    <v>       0.16666667       0.83333333       0.13119553 </v>
    <v>       0.50000000       0.16666667       0.13119553 </v>
    <v>       0.50000000       0.50000000       0.13119553 </v>
    <v>       0.50000000       0.83333333       0.13119553 </v>
    <v>       0.83333333       0.16666667       0.13119553 </v>
    <v>       0.83333333       0.50000000       0.13119553 </v>
    <v>       0.83333333       0.83333333       0.13119553 </v>
    <v>      -0.00007563       0.16651060       0.19397200 </v>
    <v>      -0.00006407       0.49996401       0.19398790 </v>
    <v>      -0.00015673       0.83326510       0.19395869 </v>
    <v>       0.33333333       0.16648393       0.19399571 </v>
    <v>       0.33333333       0.50006193       0.19400192 </v>
    <v>       0.33333333       0.83326875       0.19398109 </v>
    <v>       0.66674229       0.16651060       0.19397200 </v>
    <v>       0.66673074       0.49996401       0.19398790 </v>
    <v>       0.66682339       0.83326510       0.19395869 </v>
    <v>       0.16660963      -0.00016500       0.19396514 </v>
    <v>       0.16655169       0.33323644       0.19399355 </v>
    <v>       0.16661498       0.66664529       0.19399827 </v>
    <v>       0.50005703      -0.00016500       0.19396514 </v>
    <v>       0.50011498       0.33323644       0.19399355 </v>
    <v>       0.50005169       0.66664529       0.19399827 </v>
    <v>       0.83333333      -0.00026581       0.19396891 </v>
    <v>       0.83333333       0.33323981       0.19398128 </v>
    <v>       0.83333333       0.66672643       0.19394607 </v>
    <v>      -0.00008220      -0.00026908       0.25679759 </v>
    <v>      -0.00009616       0.33317212       0.25672652 </v>
    <v>      -0.00012619       0.66665172       0.25679320 </v>
    <v>       0.33333333      -0.00023219       0.25672868 </v>
    <v>       0.33333333       0.33319478       0.25663995 </v>
    <v>       0.33333333       0.66665989       0.25672864 </v>
    <v>       0.66674886      -0.00026908       0.25679759 </v>
    <v>       0.66676282       0.33317212       0.25672652 </v>
    <v>       0.66679286       0.66665172       0.25679320 </v>
    <v>       0.16649056       0.16632591       0.25672345 </v>
    <v>       0.16648038       0.50005350       0.25674139 </v>
    <v>       0.16656651       0.83322726       0.25677973 </v>
    <v>       0.50017610       0.16632591       0.25672345 </v>
    <v>       0.50018629       0.50005350       0.25674139 </v>
    <v>       0.50010016       0.83322726       0.25677973 </v>
    <v>       0.83333333       0.16643565       0.25678637 </v>
    <v>       0.83333333       0.49998037       0.25676210 </v>
    <v>       0.83333333       0.83319696       0.25677459 </v>
    <v>      -0.00001759       0.16648357       0.31966909 </v>
    <v>      -0.00005829       0.49983503       0.31967757 </v>
    <v>      -0.00007812       0.83314806       0.31980085 </v>
    <v>       0.33333333       0.16626546       0.31950185 </v>
    <v>       0.33333333       0.50005357       0.31948778 </v>
    <v>       0.33333333       0.83307930       0.31977672 </v>
    <v>       0.66668426       0.16648357       0.31966909 </v>
    <v>       0.66672496       0.49983503       0.31967757 </v>
    <v>       0.66674478       0.83314806       0.31980085 </v>
    <v>       0.16670668      -0.00018823       0.31968389 </v>
    <v>       0.16646279       0.33316655       0.31948445 </v>
    <v>       0.16666048       0.66659114       0.31967700 </v>
    <v>       0.49995998      -0.00018823       0.31968389 </v>
    <v>       0.50020388       0.33316655       0.31948445 </v>
    <v>       0.50000618       0.66659114       0.31967700 </v>
    <v>       0.83333333      -0.00029794       0.31980056 </v>
    <v>       0.83333333       0.33322180       0.31975437 </v>
    <v>       0.83333333       0.66653648       0.31979951 </v>
    <v>       0.00009982      -0.00009229       0.38345370 </v>
    <v>      -0.00012221       0.33314478       0.38321264 </v>
    <v>       0.00006185       0.66640431       0.38347453 </v>
    <v>       0.33333333      -0.00032799       0.38322555 </v>
    <v>       0.33333333       0.33317181       0.38302306 </v>
    <v>       0.33333333       0.66653270       0.38326681 </v>
    <v>       0.66656685      -0.00009229       0.38345370 </v>
    <v>       0.66678888       0.33314478       0.38321264 </v>
    <v>       0.66660482       0.66640431       0.38347453 </v>
    <v>       0.16666188       0.16644373       0.38324739 </v>
    <v>       0.16668081       0.49980117       0.38324269 </v>
    <v>       0.16669228       0.83316960       0.38338086 </v>
    <v>       0.50000479       0.16644373       0.38324739 </v>
    <v>       0.49998586       0.49980117       0.38324269 </v>
    <v>       0.49997439       0.83316960       0.38338086 </v>
    <v>       0.83333333       0.16652277       0.38333693 </v>
    <v>       0.83333333       0.49976494       0.38336485 </v>
    <v>       0.83333333       0.83313443       0.38355696 </v>
    <v>       0.00013438       0.16663101       0.44595081 </v>
    <v>       0.00012261       0.49960967       0.44594698 </v>
    <v>       0.00006464       0.83316815       0.44605905 </v>
    <v>       0.33333333       0.16612613       0.44562470 </v>
    <v>       0.33333333       0.50034359       0.44566986 </v>
    <v>       0.33333333       0.83312075       0.44596137 </v>
    <v>       0.66653228       0.16663101       0.44595081 </v>
    <v>       0.66654405       0.49960967       0.44594698 </v>
    <v>       0.66660202       0.83316815       0.44605905 </v>
    <v>       0.16685644      -0.00002606       0.44598090 </v>
    <v>       0.16613777       0.33291410       0.44560499 </v>
    <v>       0.16676112       0.66640073       0.44596523 </v>
    <v>       0.49981022      -0.00002606       0.44598090 </v>
    <v>       0.50052890       0.33291410       0.44560499 </v>
    <v>       0.49990555       0.66640073       0.44596523 </v>
    <v>       0.83333333      -0.00007568       0.44604733 </v>
    <v>       0.83333333       0.33312419       0.44592409 </v>
    <v>       0.83333333       0.66638897       0.44606272 </v>
    <v>       0.33333333       0.35431736       0.52654407 </v>
    <v>       0.33333333       0.38548727       0.55105643 </v>
   </varray>
  </structure>
  <varray name="forces" >
   <v>      -0.00082661      -0.00011646       0.31614952 </v>
   <v>       0.00103431      -0.00034356       0.31687923 </v>
   <v>       0.00056301       0.00018476       0.31649820 </v>
   <v>      -0.00000000       0.00089935       0.31696349 </v>
   <v>      -0.00000000      -0.00049096       0.31587295 </v>
   <v>      -0.00000000      -0.00078689       0.31681352 </v>
   <v>       0.00082661      -0.00011646       0.31614952 </v>
   <v>      -0.00103431      -0.00034356       0.31687923 </v>
   <v>      -0.00056301       0.00018476       0.31649820 </v>
   <v>      -0.00031525       0.00018926       0.31693580 </v>
   <v>      -0.00031306       0.00045969       0.31646930 </v>
   <v>      -0.00078053      -0.00068806       0.31663251 </v>
   <v>       0.00031525       0.00018926       0.31693580 </v>
   <v>       0.00031306       0.00045969       0.31646930 </v>
   <v>       0.00078053      -0.00068806       0.31663251 </v>
   <v>      -0.00000000      -0.00117579       0.31646523 </v>
   <v>      -0.00000000       0.00040014       0.31681245 </v>
   <v>      -0.00000000       0.00082315       0.31572264 </v>
   <v>       0.00082581      -0.00058034      -0.08547392 </v>
   <v>       0.00053598       0.00043336      -0.08524361 </v>
   <v>      -0.00069117      -0.00027129      -0.08415570 </v>
   <v>      -0.00000000       0.00068985      -0.08491459 </v>
   <v>      -0.00000000       0.00005465      -0.08385304 </v>
   <v>      -0.00000000       0.00049606      -0.08537953 </v>
   <v>      -0.00082581      -0.00058034      -0.08547392 </v>
   <v>      -0.00053598       0.00043336      -0.08524361 </v>
   <v>       0.00069117      -0.00027129      -0.08415570 </v>
   <v>      -0.00046939       0.00041664      -0.08499753 </v>
   <v>       0.00037881      -0.00032400      -0.08462802 </v>
   <v>      -0.00048361      -0.00092128      -0.08583595 </v>
   <v>       0.00046939       0.00041664      -0.08499753 </v>
   <v>      -0.00037881      -0.00032400      -0.08462802 </v>
   <v>       0.00048361      -0.00092128      -0.08583595 </v>
   <v>      -0.00000000      -0.00073828      -0.08409779 </v>
   <v>      -0.00000000       0.00000420      -0.08535810 </v>
   <v>      -0.00000000       0.00067936      -0.08416503 </v>
   <v>      -0.00074207      -0.00150764      -0.25238022 </v>
   <v>       0.00012565      -0.00242390      -0.24759111 </v>
   <v>       0.00237144      -0.00264328      -0.25071232 </v>
   <v>      -0.00000000      -0.00151208      -0.24739833 </v>
   <v>      -0.00000000      -0.00247793      -0.24100053 </v>
   <v>      -0.00000000      -0.00159369      -0.24759703 </v>
   <v>       0.00074207      -0.00150764      -0.25238022 </v>
   <v>      -0.00012565      -0.00242390      -0.24759111 </v>
   <v>      -0.00237144      -0.00264328      -0.25071232 </v>
   <v>      -0.00081257      -0.00174720      -0.24661226 </v>
   <v>      -0.00083741      -0.00002003      -0.24522759 </v>
   <v>      -0.00095551      -0.00433320      -0.24726545 </v>
   <v>       0.00081257      -0.00174720      -0.24661226 </v>
   <v>       0.00083741      -0.00002003      -0.24522759 </v>
   <v>       0.00095551      -0.00433320      -0.24726545 </v>
   <v>      -0.00000000      -0.00390065      -0.24793323 </v>
   <v>      -0.00000000      -0.00215633      -0.24622200 </v>
   <v>      -0.00000000      -0.00141195      -0.26072982 </v>
   <v>       0.00071996       0.00153859       0.00599395 </v>
   <v>       0.00137275       0.00216420       0.00241198 </v>
   <v>       0.01887156      -0.00137705       0.00897580 </v>
   <v>      -0.00000000       0.00816422       0.01115285 </v>
   <v>      -0.00000000      -0.01223322       0.00871201 </v>
   <v>      -0.00000000      -0.00105989      -0.00822512 </v>
   <v>      -0.00071996       0.00153859       0.00599395 </v>
   <v>      -0.00137275       0.00216420       0.00241198 </v>
   <v>      -0.01887156      -0.00137705       0.00897580 </v>
   <v>       0.00074797       0.00312892       0.00349893 </v>
   <v>       0.00975434       0.00367249       0.01205388 </v>
   <v>      -0.00127615       0.00185870       0.00259858 </v>
   <v>      -0.00074797       0.00312892       0.00349893 </v>
   <v>      -0.00975434       0.00367249       0.01205388 </v>
   <v>       0.00127615       0.00185870       0.00259858 </v>
   <v>      -0.00000000       0.02231591       0.00928458 </v>
   <v>      -0.00000000       0.00151437      -0.00938775 </v>
   <v>      -0.00000000      -0.01583447       0.00987868 </v>
   <v>      -0.00095928       0.00452477       0.01662350 </v>
   <v>      -0.01380531       0.00341832       0.01674490 </v>
   <v>       0.00198255       0.00069915       0.01603485 </v>
   <v>      -0.00000000      -0.01556197       0.01807687 </v>
   <v>      -0.00000000       0.00209209       0.05134127 </v>
   <v>      -0.00000000       0.01204414       0.01878893 </v>
   <v>       0.00095928       0.00452477       0.01662350 </v>
   <v>       0.01380531       0.00341832       0.01674490 </v>
   <v>      -0.00198255       0.00069915       0.01603485 </v>
   <v>       0.00498634       0.00759750       0.01344049 </v>
   <v>       0.00564034      -0.00430971       0.01713710 </v>
   <v>       0.00247437       0.00047636       0.01941138 </v>
   <v>      -0.00498634       0.00759750       0.01344049 </v>
   <v>      -0.00564034      -0.00430971       0.01713710 </v>
   <v>      -0.00247437       0.00047636       0.01941138 </v>
   <v>      -0.00000000       0.00034616       0.01836275 </v>
   <v>      -0.00000000      -0.00177201       0.02189766 </v>
   <v>      -0.00000000      -0.00159204       0.03280689 </v>
   <v>      -0.01033264      -0.01505725      -0.01007964 </v>
   <v>      -0.00366878       0.01933121      -0.00890634 </v>
   <v>      -0.00462395       0.00072384      -0.00775998 </v>
   <v>      -0.00000000       0.01926264      -0.00776304 </v>
   <v>      -0.00000000      -0.01266548      -0.00903605 </v>
   <v>      -0.00000000       0.00299006      -0.04020761 </v>
   <v>       0.01033264      -0.01505725      -0.01007964 </v>
   <v>       0.00366878       0.01933121      -0.00890634 </v>
   <v>       0.00462395       0.00072384      -0.00775998 </v>
   <v>      -0.01866154      -0.01173501      -0.01088461 </v>
   <v>       0.01465426      -0.00156853      -0.00663396 </v>
   <v>      -0.01610182       0.00455011      -0.00570789 </v>
   <v>       0.01866154      -0.01173501      -0.01088461 </v>
   <v>      -0.01465426      -0.00156853      -0.00663396 </v>
   <v>       0.01610182       0.00455011      -0.00570789 </v>
   <v>      -0.00000000      -0.00158790      -0.01208815 </v>
   <v>      -0.00000000      -0.00418209      -0.04548515 </v>
   <v>      -0.00000000       0.01022119      -0.00789444 </v>
   <v>      -0.01145985      -0.01247858      -0.01230719 </v>
   <v>      -0.01290000      -0.00056850      -0.00973113 </v>
   <v>      -0.00788606       0.00967333      -0.01360928 </v>
   <v>      -0.00000000      -0.01405991      -0.00654472 </v>
   <v>      -0.00000000       0.00138952      -0.01057511 </v>
   <v>      -0.00000000       0.01177815      -0.00141871 </v>
   <v>       0.01145985      -0.01247858      -0.01230719 </v>
   <v>       0.01290000      -0.00056850      -0.00973113 </v>
   <v>       0.00788606       0.00967333      -0.01360928 </v>
   <v>      -0.00376674      -0.00554362      -0.03749859 </v>
   <v>      -0.00296708       0.00303148      -0.02355129 </v>
   <v>      -0.01355612       0.00104709       0.00251726 </v>
   <v>       0.00376674      -0.00554362      -0.03749859 </v>
   <v>       0.00296708       0.00303148      -0.02355129 </v>
   <v>       0.01355612       0.00104709       0.00251726 </v>
   <v>      -0.00000000      -0.01658120       0.00273866 </v>
   <v>      -0.00000000       0.01836684       0.00304071 </v>
   <v>      -0.00000000       0.00094703      -0.00796080 </v>
   <v>      -0.00803662      -0.00677342       0.01749711 </v>
   <v>       0.00004178       0.00329707       0.01515180 </v>
   <v>       0.00725100       0.00140807       0.02358535 </v>
   <v>      -0.00000000       0.03217912      -0.00604483 </v>
   <v>      -0.00000000      -0.04243904      -0.01570537 </v>
   <v>      -0.00000000       0.00191234       0.02366329 </v>
   <v>       0.00803662      -0.00677342       0.01749711 </v>
   <v>      -0.00004178       0.00329707       0.01515180 </v>
   <v>      -0.00725100       0.00140807       0.02358535 </v>
   <v>      -0.00516452      -0.00255773       0.01581342 </v>
   <v>       0.03514264       0.00499258      -0.01236165 </v>
   <v>      -0.00127917       0.00001395       0.01605743 </v>
   <v>       0.00516452      -0.00255773       0.01581342 </v>
   <v>      -0.03514264       0.00499258      -0.01236165 </v>
   <v>       0.00127917       0.00001395       0.01605743 </v>
   <v>      -0.00000000       0.00592539       0.02156289 </v>
   <v>      -0.00000000      -0.00063454       0.02407376 </v>
   <v>      -0.00000000      -0.00659607       0.02416517 </v>
   <v>      -0.00000000       0.02071134       0.01545183 </v>
   <v>      -0.00000000      -0.01504647       0.04142283 </v>
  </varray>
  <varray name="stress" >
   <v>     -34.82621422       0.00000000       0.00000000 </v>
   <v>       0.00000000     -34.83748661       0.07306177 </v>
   <v>       0.00000000       0.07306154     -12.50209869 </v>
  </varray>
  <energy>
   <i name="e_fr_energy">   -582.23714180 </i>
   <i name="e_wo_entrp">   -582.35472759 </i>
   <i name="e_0_energy">   -582.27633707 </i>
  </energy>
  <time name="totalsc"> 2792.42 2826.27</time>
 </calculation>
 <calculation>
  <scstep>
   <time name="dav">  528.89  535.73</time>
   <time name="total">  533.39  540.27</time>
   <energy>
    <i name="alphaZ">   4623.72760507 </i>
    <i name="ewald"> 923919.20805044 </i>
    <i name="hartreedc">**************** </i>
    <i name="XCdc">   6429.96047019 </i>
    <i name="pawpsdc"> 189127.23136522 </i>
    <i name="pawaedc">-204649.18507937 </i>
    <i name="eentropy">      0.11785947 </i>
    <i name="bandstr">  -1809.92907955 </i>
    <i name="atom"> 200322.85745410 </i>
    <i name="e_fr_energy">   -521.74488460 </i>
    <i name="e_wo_entrp">   -521.86274407 </i>
    <i name="e_0_energy">   -521.78417109 </i>
   </energy>
  </scstep>
  <scstep>
   <time name="dav">  510.86  517.52</time>
   <time name="total">  511.19  517.87</time>
   <energy>
    <i name="alphaZ">   4623.72760507 </i>
    <i name="ewald"> 923919.20805044 </i>
    <i name="hartreedc">**************** </i>
    <i name="XCdc">   6429.96013607 </i>
    <i name="pawpsdc"> 189127.21530096 </i>
    <i name="pawaedc">-204649.16820752 </i>
    <i name="eentropy">      0.11793682 </i>
    <i name="bandstr">  -1809.93979622 </i>
    <i name="atom"> 200322.85745410 </i>
    <i name="e_fr_energy">   -521.74488754 </i>
    <i name="e_wo_entrp">   -521.86282436 </i>
    <i name="e_0_energy">   -521.78419981 </i>
   </energy>
  </scstep>
