unknown system                          
           1
    10.890000    0.000000    0.000000
     0.000000   10.890000    0.000000
     0.000000    0.000000   27.705000
   Cu   H 
   144     2
Direct configuration=     1
   0.00000000  0.00000000  0.00000000
   0.00000000  0.33333333  0.00000000
   0.00000000  0.66666667  0.00000000
   0.33333333  0.00000000  0.00000000
   0.33333333  0.33333333  0.00000000
   0.33333333  0.66666667  0.00000000
   0.66666667  0.00000000  0.00000000
   0.66666667  0.33333333  0.00000000
   0.66666667  0.66666667  0.00000000
   0.16666667  0.16666667  0.00000000
   0.16666667  0.50000000  0.00000000
   0.16666667  0.83333333  0.00000000
   0.50000000  0.16666667  0.00000000
   0.50000000  0.50000000  0.00000000
   0.50000000  0.83333333  0.00000000
   0.83333333  0.16666667  0.00000000
   0.83333333  0.50000000  0.00000000
   0.83333333  0.83333333  0.00000000
   0.00000000  0.16666667  0.06551164
   0.00000000  0.50000000  0.06551164
   0.00000000  0.83333333  0.06551164
   0.33333333  0.16666667  0.06551164
   0.33333333  0.50000000  0.06551164
   0.33333333  0.83333333  0.06551164
   0.66666667  0.16666667  0.06551164
   0.66666667  0.50000000  0.06551164
   0.66666667  0.83333333  0.06551164
   0.16666667  0.00000000  0.06551164
   0.16666667  0.33333333  0.06551164
   0.16666667  0.66666667  0.06551164
   0.50000000  0.00000000  0.06551164
   0.50000000  0.33333333  0.06551164
   0.50000000  0.66666667  0.06551164
   0.83333333  0.00000000  0.06551164
   0.83333333  0.33333333  0.06551164
   0.83333333  0.66666667  0.06551164
   0.00000000  0.00000000  0.13119553
   0.00000000  0.33333333  0.13119553
   0.00000000  0.66666667  0.13119553
   0.33333333  0.00000000  0.13119553
   0.33333333  0.33333333  0.13119553
   0.33333333  0.66666667  0.13119553
   0.66666667  0.00000000  0.13119553
   0.66666667  0.33333333  0.13119553
   0.66666667  0.66666667  0.13119553
   0.16666667  0.16666667  0.13119553
   0.16666667  0.50000000  0.13119553
   0.16666667  0.83333333  0.13119553
   0.50000000  0.16666667  0.13119553
   0.50000000  0.50000000  0.13119553
   0.50000000  0.83333333  0.13119553
   0.83333333  0.16666667  0.13119553
   0.83333333  0.50000000  0.13119553
   0.83333333  0.83333333  0.13119553
   0.00000000  0.16666667  0.19620680
   0.00000000  0.50000000  0.19620680
   0.00000000  0.83333333  0.19620680
   0.33333333  0.16666667  0.19620680
   0.33333333  0.50000000  0.19620680
   0.33333333  0.83333333  0.19620680
   0.66666667  0.16666667  0.19620680
   0.66666667  0.50000000  0.19620680
   0.66666667  0.83333333  0.19620680
   0.16666667  0.00000000  0.19620680
   0.16666667  0.33333333  0.19620680
   0.16666667  0.66666667  0.19620680
   0.50000000  0.00000000  0.19620680
   0.50000000  0.33333333  0.19620680
   0.50000000  0.66666667  0.19620680
   0.83333333  0.00000000  0.19620680
   0.83333333  0.33333333  0.19620680
   0.83333333  0.66666667  0.19620680
   0.00000000  0.00000000  0.25873860
   0.00000000  0.33333333  0.25873860
   0.00000000  0.66666667  0.25873860
   0.33333333  0.00000000  0.25873860
   0.33333333  0.33333333  0.25873860
   0.33333333  0.66666667  0.25873860
   0.66666667  0.00000000  0.25873860
   0.66666667  0.33333333  0.25873860
   0.66666667  0.66666667  0.25873860
   0.16666667  0.16666667  0.25873860
   0.16666667  0.50000000  0.25873860
   0.16666667  0.83333333  0.25873860
   0.50000000  0.16666667  0.25873860
   0.50000000  0.50000000  0.25873860
   0.50000000  0.83333333  0.25873860
   0.83333333  0.16666667  0.25873860
   0.83333333  0.50000000  0.25873860
   0.83333333  0.83333333  0.25873860
   0.00000000  0.16666667  0.32119954
   0.00000000  0.50000000  0.32119954
   0.00000000  0.83333333  0.32119954
   0.33333333  0.16666667  0.32119954
   0.33333333  0.50000000  0.32119954
   0.33333333  0.83333333  0.32119954
   0.66666667  0.16666667  0.32119954
   0.66666667  0.50000000  0.32119954
   0.66666667  0.83333333  0.32119954
   0.16666667  0.00000000  0.32119954
   0.16666667  0.33333333  0.32119954
   0.16666667  0.66666667  0.32119954
   0.50000000  0.00000000  0.32119954
   0.50000000  0.33333333  0.32119954
   0.50000000  0.66666667  0.32119954
   0.83333333  0.00000000  0.32119954
   0.83333333  0.33333333  0.32119954
   0.83333333  0.66666667  0.32119954
   0.00000000  0.00000000  0.38476372
   0.00000000  0.33333333  0.38476372
   0.00000000  0.66666667  0.38476372
   0.33333333  0.00000000  0.38476372
   0.33333333  0.33333333  0.38476372
   0.33333333  0.66666667  0.38476372
   0.66666667  0.00000000  0.38476372
   0.66666667  0.33333333  0.38476372
   0.66666667  0.66666667  0.38476372
   0.16666667  0.16666667  0.38476372
   0.16666667  0.50000000  0.38476372
   0.16666667  0.83333333  0.38476372
   0.50000000  0.16666667  0.38476372
   0.50000000  0.50000000  0.38476372
   0.50000000  0.83333333  0.38476372
   0.83333333  0.16666667  0.38476372
   0.83333333  0.50000000  0.38476372
   0.83333333  0.83333333  0.38476372
   0.00000000  0.16666667  0.44736473
   0.00000000  0.50000000  0.44736473
   0.00000000  0.83333333  0.44736473
   0.33333333  0.16666667  0.44736473
   0.33333333  0.50000000  0.44736473
   0.33333333  0.83333333  0.44736473
   0.66666667  0.16666667  0.44736473
   0.66666667  0.50000000  0.44736473
   0.66666667  0.83333333  0.44736473
   0.16666667  0.00000000  0.44736473
   0.16666667  0.33333333  0.44736473
   0.16666667  0.66666667  0.44736473
   0.50000000  0.00000000  0.44736473
   0.50000000  0.33333333  0.44736473
   0.50000000  0.66666667  0.44736473
   0.83333333  0.00000000  0.44736473
   0.83333333  0.33333333  0.44736473
   0.83333333  0.66666667  0.44736473
   0.33333333  0.33333333  0.50150658
   0.33333333  0.38177242  0.52054652
Direct configuration=     2
   0.00000000  0.00000000  0.00000000
   0.00000000  0.33333333  0.00000000
   0.00000000  0.66666667  0.00000000
   0.33333333  0.00000000  0.00000000
   0.33333333  0.33333333  0.00000000
   0.33333333  0.66666667  0.00000000
   0.66666667  0.00000000  0.00000000
   0.66666667  0.33333333  0.00000000
   0.66666667  0.66666667  0.00000000
   0.16666667  0.16666667  0.00000000
   0.16666667  0.50000000  0.00000000
   0.16666667  0.83333333  0.00000000
   0.50000000  0.16666667  0.00000000
   0.50000000  0.50000000  0.00000000
   0.50000000  0.83333333  0.00000000
   0.83333333  0.16666667  0.00000000
   0.83333333  0.50000000  0.00000000
   0.83333333  0.83333333  0.00000000
   0.00000000  0.16666667  0.06551164
   0.00000000  0.50000000  0.06551164
   0.00000000  0.83333333  0.06551164
   0.33333333  0.16666667  0.06551164
   0.33333333  0.50000000  0.06551164
   0.33333333  0.83333333  0.06551164
   0.66666667  0.16666667  0.06551164
   0.66666667  0.50000000  0.06551164
   0.66666667  0.83333333  0.06551164
   0.16666667  0.00000000  0.06551164
   0.16666667  0.33333333  0.06551164
   0.16666667  0.66666667  0.06551164
   0.50000000  0.00000000  0.06551164
   0.50000000  0.33333333  0.06551164
   0.50000000  0.66666667  0.06551164
   0.83333333  0.00000000  0.06551164
   0.83333333  0.33333333  0.06551164
   0.83333333  0.66666667  0.06551164
   0.00000000  0.00000000  0.13119553
   0.00000000  0.33333333  0.13119553
   0.00000000  0.66666667  0.13119553
   0.33333333  0.00000000  0.13119553
   0.33333333  0.33333333  0.13119553
   0.33333333  0.66666667  0.13119553
   0.66666667  0.00000000  0.13119553
   0.66666667  0.33333333  0.13119553
   0.66666667  0.66666667  0.13119553
   0.16666667  0.16666667  0.13119553
   0.16666667  0.50000000  0.13119553
   0.16666667  0.83333333  0.13119553
   0.50000000  0.16666667  0.13119553
   0.50000000  0.50000000  0.13119553
   0.50000000  0.83333333  0.13119553
   0.83333333  0.16666667  0.13119553
   0.83333333  0.50000000  0.13119553
   0.83333333  0.83333333  0.13119553
   0.00001590  0.16666626  0.19574881
   0.00001224  0.50000188  0.19575166
  -0.00001064  0.83333211  0.19573616
   0.33333333  0.16667070  0.19575730
   0.33333333  0.49999410  0.19574141
   0.33333333  0.83333504  0.19572498
   0.66665076  0.16666626  0.19574881
   0.66665442  0.50000188  0.19575166
   0.66667730  0.83333211  0.19573616
   0.16666645  0.00001278  0.19574316
   0.16666995  0.33333276  0.19574914
   0.16666351  0.66665552  0.19575853
   0.50000022  0.00001278  0.19574316
   0.49999671  0.33333276  0.19574914
   0.50000316  0.66665552  0.19575853
   0.83333333 -0.00001283  0.19573923
   0.83333333  0.33333460  0.19572493
   0.83333333  0.66667655  0.19573334
   0.00000583  0.00000581  0.25868647
  -0.00004092  0.33332826  0.25866433
   0.00000112  0.66666566  0.25868174
   0.33333333 -0.00005507  0.25866157
   0.33333333  0.33333986  0.25873061
   0.33333333  0.66668994  0.25866606
   0.66666084  0.00000581  0.25868647
   0.66670759  0.33332826  0.25866433
   0.66666554  0.66666566  0.25868174
   0.16665604  0.16665886  0.25868910
   0.16666574  0.50000690  0.25870735
   0.16667332  0.83334945  0.25868656
   0.50001063  0.16665886  0.25868910
   0.50000093  0.50000690  0.25870735
   0.49999334  0.83334945  0.25868656
   0.83333333  0.16667221  0.25868937
   0.83333333  0.49999320  0.25868196
   0.83333333  0.83333035  0.25869070
   0.00000905  0.16666109  0.32129669
   0.00001717  0.50001143  0.32129516
  -0.00000511  0.83332319  0.32128447
   0.33333333  0.16664538  0.32124955
   0.33333333  0.49999463  0.32125134
   0.33333333  0.83328264  0.32130398
   0.66665761  0.16666109  0.32129669
   0.66664950  0.50001143  0.32129516
   0.66667177  0.83332319  0.32128447
   0.16666520  0.00003581  0.32130292
   0.16665957  0.33332879  0.32124775
   0.16664879  0.66667485  0.32129053
   0.50000147  0.00003581  0.32130292
   0.50000709  0.33332879  0.32124775
   0.50001787  0.66667485  0.32129053
   0.83333333 -0.00000861  0.32128606
   0.83333333  0.33333570  0.32130614
   0.83333333  0.66666828  0.32128338
  -0.00000600 -0.00000386  0.38479823
  -0.00003905  0.33334236  0.38482179
  -0.00000871  0.66667996  0.38479949
   0.33333333 -0.00011834  0.38479400
   0.33333333  0.33327898  0.38457583
   0.33333333  0.66661757  0.38485296
   0.66667266 -0.00000386  0.38479823
   0.66670572  0.33334236  0.38482179
   0.66667538  0.66667996  0.38479949
   0.16671795  0.16672976  0.38485327
   0.16673187  0.49994495  0.38483852
   0.16666645  0.83335801  0.38480384
   0.49994871  0.16672976  0.38485327
   0.49993480  0.49994495  0.38483852
   0.50000022  0.83335801  0.38480384
   0.83333333  0.16667016  0.38480436
   0.83333333  0.50000480  0.38480321
   0.83333333  0.83333006  0.38480169
   0.00004629  0.16668339  0.44737409
   0.00004769  0.49997673  0.44735950
  -0.00000246  0.83332662  0.44735243
   0.33333333  0.16576939  0.44710714
   0.33333333  0.50096234  0.44714889
   0.33333333  0.83333401  0.44736371
   0.66662037  0.16668339  0.44737409
   0.66661898  0.49997673  0.44735950
   0.66666913  0.83332662  0.44735243
   0.16668788  0.00004999  0.44737158
   0.16565876  0.33312994  0.44708489
   0.16669477  0.66662390  0.44736688
   0.49997879  0.00004999  0.44737158
   0.50100790  0.33312994  0.44708489
   0.49997189  0.66662390  0.44736688
   0.83333333  0.00000187  0.44735180
   0.83333333  0.33334065  0.44736332
   0.83333333  0.66666947  0.44735361
   0.33333333  0.33052025  0.50074742
   0.33333333  0.38505125  0.52228059
Direct configuration=     3
   0.00000000  0.00000000  0.00000000
   0.00000000  0.33333333  0.00000000
   0.00000000  0.66666667  0.00000000
   0.33333333  0.00000000  0.00000000
   0.33333333  0.33333333  0.00000000
   0.33333333  0.66666667  0.00000000
   0.66666667  0.00000000  0.00000000
   0.66666667  0.33333333  0.00000000
   0.66666667  0.66666667  0.00000000
   0.16666667  0.16666667  0.00000000
   0.16666667  0.50000000  0.00000000
   0.16666667  0.83333333  0.00000000
   0.50000000  0.16666667  0.00000000
   0.50000000  0.50000000  0.00000000
   0.50000000  0.83333333  0.00000000
   0.83333333  0.16666667  0.00000000
   0.83333333  0.50000000  0.00000000
   0.83333333  0.83333333  0.00000000
   0.00000000  0.16666667  0.06551164
   0.00000000  0.50000000  0.06551164
   0.00000000  0.83333333  0.06551164
   0.33333333  0.16666667  0.06551164
   0.33333333  0.50000000  0.06551164
   0.33333333  0.83333333  0.06551164
   0.66666667  0.16666667  0.06551164
   0.66666667  0.50000000  0.06551164
   0.66666667  0.83333333  0.06551164
   0.16666667  0.00000000  0.06551164
   0.16666667  0.33333333  0.06551164
   0.16666667  0.66666667  0.06551164
   0.50000000  0.00000000  0.06551164
   0.50000000  0.33333333  0.06551164
   0.50000000  0.66666667  0.06551164
   0.83333333  0.00000000  0.06551164
   0.83333333  0.33333333  0.06551164
   0.83333333  0.66666667  0.06551164
   0.00000000  0.00000000  0.13119553
   0.00000000  0.33333333  0.13119553
   0.00000000  0.66666667  0.13119553
   0.33333333  0.00000000  0.13119553
   0.33333333  0.33333333  0.13119553
   0.33333333  0.66666667  0.13119553
   0.66666667  0.00000000  0.13119553
   0.66666667  0.33333333  0.13119553
   0.66666667  0.66666667  0.13119553
   0.16666667  0.16666667  0.13119553
   0.16666667  0.50000000  0.13119553
   0.16666667  0.83333333  0.13119553
   0.50000000  0.16666667  0.13119553
   0.50000000  0.50000000  0.13119553
   0.50000000  0.83333333  0.13119553
   0.83333333  0.16666667  0.13119553
   0.83333333  0.50000000  0.13119553
   0.83333333  0.83333333  0.13119553
   0.00001226  0.16666636  0.19585380
   0.00000944  0.50000145  0.19585599
  -0.00000820  0.83333239  0.19584404
   0.33333333  0.16666977  0.19586034
   0.33333333  0.49999546  0.19584809
   0.33333333  0.83333465  0.19583543
   0.66665441  0.16666636  0.19585380
   0.66665723  0.50000145  0.19585599
   0.66667486  0.83333239  0.19584404
   0.16666650  0.00000985  0.19584944
   0.16666920  0.33333290  0.19585405
   0.16666423  0.66665807  0.19586129
   0.50000017  0.00000985  0.19584944
   0.49999747  0.33333290  0.19585405
   0.50000243  0.66665807  0.19586129
   0.83333333 -0.00000989  0.19584641
   0.83333333  0.33333431  0.19583539
   0.83333333  0.66667428  0.19584187
   0.00000449  0.00000447  0.25869842
  -0.00003154  0.33332942  0.25868136
   0.00000086  0.66666589  0.25869477
   0.33333333 -0.00004245  0.25867923
   0.33333333  0.33333836  0.25873244
   0.33333333  0.66668461  0.25868269
   0.66666218  0.00000447  0.25869842
   0.66669821  0.33332942  0.25868136
   0.66666580  0.66666589  0.25869477
   0.16665848  0.16666065  0.25870045
   0.16666595  0.50000532  0.25871451
   0.16667180  0.83334575  0.25869849
   0.50000819  0.16666065  0.25870045
   0.50000072  0.50000532  0.25871451
   0.49999487  0.83334575  0.25869849
   0.83333333  0.16667094  0.25870065
   0.83333333  0.49999476  0.25869495
   0.83333333  0.83333103  0.25870168
   0.00000698  0.16666237  0.32127442
   0.00001323  0.50000881  0.32127324
  -0.00000394  0.83332552  0.32126500
   0.33333333  0.16665026  0.32123809
   0.33333333  0.49999586  0.32123946
   0.33333333  0.83329426  0.32128004
   0.66665969  0.16666237  0.32127442
   0.66665344  0.50000881  0.32127324
   0.66667060  0.83332552  0.32126500
   0.16666554  0.00002760  0.32127922
   0.16666120  0.33332983  0.32123670
   0.16665289  0.66667297  0.32126967
   0.50000113  0.00002760  0.32127922
   0.50000547  0.33332983  0.32123670
   0.50001378  0.66667297  0.32126967
   0.83333333 -0.00000663  0.32126623
   0.83333333  0.33333515  0.32128170
   0.83333333  0.66666791  0.32126416
  -0.00000462 -0.00000298  0.38479032
  -0.00003010  0.33334029  0.38480848
  -0.00000672  0.66667691  0.38479129
   0.33333333 -0.00009121  0.38478706
   0.33333333  0.33329144  0.38461890
   0.33333333  0.66662882  0.38483250
   0.66667129 -0.00000298  0.38479032
   0.66669677  0.33334029  0.38480848
   0.66667338  0.66667691  0.38479129
   0.16670620  0.16671530  0.38483274
   0.16671692  0.49995757  0.38482138
   0.16666650  0.83335235  0.38479464
   0.49996047  0.16671530  0.38483274
   0.49994975  0.49995757  0.38482138
   0.50000017  0.83335235  0.38479464
   0.83333333  0.16666936  0.38479504
   0.83333333  0.50000370  0.38479416
   0.83333333  0.83333081  0.38479299
   0.00003568  0.16667955  0.44737195
   0.00003676  0.49998207  0.44736070
  -0.00000190  0.83332816  0.44735525
   0.33333333  0.16597508  0.44716619
   0.33333333  0.50074174  0.44719836
   0.33333333  0.83333385  0.44736395
   0.66663099  0.16667955  0.44737195
   0.66662991  0.49998207  0.44736070
   0.66666857  0.83332816  0.44735525
   0.16668301  0.00003853  0.44737001
   0.16588981  0.33317656  0.44714904
   0.16668833  0.66663371  0.44736638
   0.49998365  0.00003853  0.44737001
   0.50077686  0.33317656  0.44714904
   0.49997834  0.66663371  0.44736638
   0.83333333  0.00000144  0.44735477
   0.83333333  0.33333897  0.44736364
   0.83333333  0.66666882  0.44735616
   0.33333333  0.33116511  0.50092145
   0.33333333  0.38429963  0.52188308
Direct configuration=     4
   0.00000000  0.00000000  0.00000000
   0.00000000  0.33333333  0.00000000
   0.00000000  0.66666667  0.00000000
   0.33333333  0.00000000  0.00000000
   0.33333333  0.33333333  0.00000000
   0.33333333  0.66666667  0.00000000
   0.66666667  0.00000000  0.00000000
   0.66666667  0.33333333  0.00000000
   0.66666667  0.66666667  0.00000000
   0.16666667  0.16666667  0.00000000
   0.16666667  0.50000000  0.00000000
   0.16666667  0.83333333  0.00000000
   0.50000000  0.16666667  0.00000000
   0.50000000  0.50000000  0.00000000
   0.50000000  0.83333333  0.00000000
   0.83333333  0.16666667  0.00000000
   0.83333333  0.50000000  0.00000000
   0.83333333  0.83333333  0.00000000
   0.00000000  0.16666667  0.06551164
   0.00000000  0.50000000  0.06551164
   0.00000000  0.83333333  0.06551164
   0.33333333  0.16666667  0.06551164
   0.33333333  0.50000000  0.06551164
   0.33333333  0.83333333  0.06551164
   0.66666667  0.16666667  0.06551164
   0.66666667  0.50000000  0.06551164
   0.66666667  0.83333333  0.06551164
   0.16666667  0.00000000  0.06551164
   0.16666667  0.33333333  0.06551164
   0.16666667  0.66666667  0.06551164
   0.50000000  0.00000000  0.06551164
   0.50000000  0.33333333  0.06551164
   0.50000000  0.66666667  0.06551164
   0.83333333  0.00000000  0.06551164
   0.83333333  0.33333333  0.06551164
   0.83333333  0.66666667  0.06551164
   0.00000000  0.00000000  0.13119553
   0.00000000  0.33333333  0.13119553
   0.00000000  0.66666667  0.13119553
   0.33333333  0.00000000  0.13119553
   0.33333333  0.33333333  0.13119553
   0.33333333  0.66666667  0.13119553
   0.66666667  0.00000000  0.13119553
   0.66666667  0.33333333  0.13119553
   0.66666667  0.66666667  0.13119553
   0.16666667  0.16666667  0.13119553
   0.16666667  0.50000000  0.13119553
   0.16666667  0.83333333  0.13119553
   0.50000000  0.16666667  0.13119553
   0.50000000  0.50000000  0.13119553
   0.50000000  0.83333333  0.13119553
   0.83333333  0.16666667  0.13119553
   0.83333333  0.50000000  0.13119553
   0.83333333  0.83333333  0.13119553
   0.00003041  0.16666390  0.19532208
   0.00002662  0.50000563  0.19532845
  -0.00001932  0.83333170  0.19529870
   0.33333333  0.16668126  0.19534318
   0.33333333  0.49998266  0.19531134
   0.33333333  0.83333544  0.19527369
   0.66663625  0.16666390  0.19532208
   0.66664004  0.50000563  0.19532845
   0.66668599  0.83333170  0.19529870
   0.16666385  0.00002503  0.19531044
   0.16667888  0.33333441  0.19532699
   0.16665881  0.66664394  0.19534295
   0.50000282  0.00002503  0.19531044
   0.49998778  0.33333441  0.19532699
   0.50000786  0.66664394  0.19534295
   0.83333333 -0.00002333  0.19530521
   0.83333333  0.33333493  0.19527381
   0.83333333  0.66668507  0.19529269
   0.00001224  0.00001116  0.25858511
  -0.00008817  0.33332373  0.25854225
   0.00000009  0.66666540  0.25857515
   0.33333333 -0.00011796  0.25853680
   0.33333333  0.33334729  0.25866660
   0.33333333  0.66671658  0.25854490
   0.66665442  0.00001116  0.25858511
   0.66675483  0.33332373  0.25854225
   0.66666658  0.66666540  0.25857515
   0.16664200  0.16664665  0.25858835
   0.16666217  0.50001661  0.25862560
   0.16667993  0.83336953  0.25858475
   0.50002467  0.16664665  0.25858835
   0.50000449  0.50001661  0.25862560
   0.49998674  0.83336953  0.25858475
   0.83333333  0.16667756  0.25858995
   0.83333333  0.49998671  0.25857499
   0.83333333  0.83332727  0.25859144
   0.00002042  0.16666047  0.32137934
   0.00003485  0.50002023  0.32137547
  -0.00000736  0.83331412  0.32135390
   0.33333333  0.16658823  0.32128249
   0.33333333  0.50002267  0.32128905
   0.33333333  0.83322027  0.32139258
   0.66664625  0.16666047  0.32137934
   0.66663181  0.50002023  0.32137547
   0.66667403  0.83331412  0.32135390
   0.16666622  0.00007549  0.32139085
   0.16661840  0.33332109  0.32127997
   0.16663625  0.66668311  0.32136842
   0.50000045  0.00007549  0.32139085
   0.50004826  0.33332109  0.32127997
   0.50003042  0.66668311  0.32136842
   0.83333333 -0.00001526  0.32135739
   0.83333333  0.33334052  0.32139743
   0.83333333  0.66666558  0.32135169
  -0.00000919 -0.00000359  0.38484541
  -0.00013247  0.33335287  0.38486678
  -0.00001199  0.66669043  0.38484780
   0.33333333 -0.00028736  0.38481308
   0.33333333  0.33323579  0.38441037
   0.33333333  0.66661389  0.38493155
   0.66667586 -0.00000359  0.38484541
   0.66679914  0.33335287  0.38486678
   0.66667866  0.66669043  0.38484780
   0.16674683  0.16675852  0.38492577
   0.16677973  0.49990384  0.38490079
   0.16666243  0.83337961  0.38485581
   0.49991983  0.16675852  0.38492577
   0.49988694  0.49990384  0.38490079
   0.50000424  0.83337961  0.38485581
   0.83333333  0.16667030  0.38485716
   0.83333333  0.50001591  0.38485333
   0.83333333  0.83332729  0.38484957
   0.00005140  0.16666234  0.44739385
   0.00006726  0.49998057  0.44736118
  -0.00000116  0.83331970  0.44734806
   0.33333333  0.16502762  0.44688476
   0.33333333  0.50174369  0.44699776
   0.33333333  0.83333663  0.44737564
   0.66661527  0.16666234  0.44739385
   0.66659940  0.49998057  0.44736118
   0.66666782  0.83331970  0.44734806
   0.16668328  0.00007004  0.44738766
   0.16482348  0.33292776  0.44684656
   0.16669070  0.66661474  0.44737912
   0.49998339  0.00007004  0.44738766
   0.50184318  0.33292776  0.44684656
   0.49997597  0.66661474  0.44737912
   0.83333333  0.00000753  0.44734650
   0.83333333  0.33334869  0.44737494
   0.83333333  0.66666796  0.44735079
   0.33333333  0.33210083  0.50167101
   0.33333333  0.38399136  0.52228972
Direct configuration=     5
   0.00000000  0.00000000  0.00000000
   0.00000000  0.33333333  0.00000000
   0.00000000  0.66666667  0.00000000
   0.33333333  0.00000000  0.00000000
   0.33333333  0.33333333  0.00000000
   0.33333333  0.66666667  0.00000000
   0.66666667  0.00000000  0.00000000
   0.66666667  0.33333333  0.00000000
   0.66666667  0.66666667  0.00000000
   0.16666667  0.16666667  0.00000000
   0.16666667  0.50000000  0.00000000
   0.16666667  0.83333333  0.00000000
   0.50000000  0.16666667  0.00000000
   0.50000000  0.50000000  0.00000000
   0.50000000  0.83333333  0.00000000
   0.83333333  0.16666667  0.00000000
   0.83333333  0.50000000  0.00000000
   0.83333333  0.83333333  0.00000000
   0.00000000  0.16666667  0.06551164
   0.00000000  0.50000000  0.06551164
   0.00000000  0.83333333  0.06551164
   0.33333333  0.16666667  0.06551164
   0.33333333  0.50000000  0.06551164
   0.33333333  0.83333333  0.06551164
   0.66666667  0.16666667  0.06551164
   0.66666667  0.50000000  0.06551164
   0.66666667  0.83333333  0.06551164
   0.16666667  0.00000000  0.06551164
   0.16666667  0.33333333  0.06551164
   0.16666667  0.66666667  0.06551164
   0.50000000  0.00000000  0.06551164
   0.50000000  0.33333333  0.06551164
   0.50000000  0.66666667  0.06551164
   0.83333333  0.00000000  0.06551164
   0.83333333  0.33333333  0.06551164
   0.83333333  0.66666667  0.06551164
   0.00000000  0.00000000  0.13119553
   0.00000000  0.33333333  0.13119553
   0.00000000  0.66666667  0.13119553
   0.33333333  0.00000000  0.13119553
   0.33333333  0.33333333  0.13119553
   0.33333333  0.66666667  0.13119553
   0.66666667  0.00000000  0.13119553
   0.66666667  0.33333333  0.13119553
   0.66666667  0.66666667  0.13119553
   0.16666667  0.16666667  0.13119553
   0.16666667  0.50000000  0.13119553
   0.16666667  0.83333333  0.13119553
   0.50000000  0.16666667  0.13119553
   0.50000000  0.50000000  0.13119553
   0.50000000  0.83333333  0.13119553
   0.83333333  0.16666667  0.13119553
   0.83333333  0.50000000  0.13119553
   0.83333333  0.83333333  0.13119553
   0.00004840  0.16666148  0.19479541
   0.00004365  0.50000976  0.19480592
  -0.00003035  0.83333103  0.19475854
   0.33333333  0.16669265  0.19483094
   0.33333333  0.49996999  0.19477969
   0.33333333  0.83333622  0.19471728
   0.66661827  0.16666148  0.19479541
   0.66662302  0.50000976  0.19480592
   0.66669701  0.83333103  0.19475854
   0.16666122  0.00004007  0.19477656
   0.16668848  0.33333590  0.19480494
   0.16665344  0.66662995  0.19482953
   0.50000545  0.00004007  0.19477656
   0.49997819  0.33333590  0.19480494
   0.50001323  0.66662995  0.19482953
   0.83333333 -0.00003666  0.19476916
   0.83333333  0.33333555  0.19471756
   0.83333333  0.66669575  0.19474872
   0.00001992  0.00001778  0.25847287
  -0.00014426  0.33331810  0.25840447
  -0.00000068  0.66666492  0.25845665
   0.33333333 -0.00019275  0.25839573
   0.33333333  0.33335613  0.25860138
   0.33333333  0.66674825  0.25840842
   0.66664675  0.00001778  0.25847287
   0.66681092  0.33331810  0.25840447
   0.66666735  0.66666492  0.25845665
   0.16662568  0.16663278  0.25847732
   0.16665843  0.50002778  0.25853754
   0.16668798  0.83339308  0.25847209
   0.50004098  0.16663278  0.25847732
   0.50000824  0.50002778  0.25853754
   0.49997869  0.83339308  0.25847209
   0.83333333  0.16668411  0.25848030
   0.83333333  0.49997873  0.25845618
   0.83333333  0.83332355  0.25848225
   0.00003373  0.16665859  0.32148327
   0.00005627  0.50003155  0.32147672
  -0.00001075  0.83330283  0.32144195
   0.33333333  0.16652679  0.32132647
   0.33333333  0.50004922  0.32133816
   0.33333333  0.83314699  0.32150405
   0.66663294  0.16665859  0.32148327
   0.66661039  0.50003155  0.32147672
   0.66667742  0.83330283  0.32144195
   0.16666690  0.00012293  0.32150142
   0.16657601  0.33331244  0.32132284
   0.16661976  0.66669315  0.32146623
   0.49999977  0.00012293  0.32150142
   0.50009065  0.33331244  0.32132284
   0.50004691  0.66669315  0.32146623
   0.83333333 -0.00002379  0.32144770
   0.83333333  0.33334583  0.32151206
   0.83333333  0.66666328  0.32143838
  -0.00001372 -0.00000421  0.38489998
  -0.00023388  0.33336532  0.38492452
  -0.00001721  0.66670381  0.38490379
   0.33333333 -0.00048165  0.38483884
   0.33333333  0.33318066  0.38420382
   0.33333333  0.66659909  0.38502965
   0.66668039 -0.00000421  0.38489998
   0.66690054  0.33336532  0.38492452
   0.66668388  0.66670381  0.38490379
   0.16678708  0.16680133  0.38501792
   0.16684193  0.49985063  0.38497946
   0.16665840  0.83340660  0.38491640
   0.49987958  0.16680133  0.38501792
   0.49982473  0.49985063  0.38497946
   0.50000827  0.83340660  0.38491640
   0.83333333  0.16667124  0.38491869
   0.83333333  0.50002800  0.38491195
   0.83333333  0.83332379  0.38490562
   0.00006697  0.16664530  0.44741554
   0.00009748  0.49997909  0.44736166
  -0.00000042  0.83331133  0.44734093
   0.33333333  0.16408915  0.44660600
   0.33333333  0.50273613  0.44679906
   0.33333333  0.83333937  0.44738722
   0.66659969  0.16664530  0.44741554
   0.66656919  0.49997909  0.44736166
   0.66666709  0.83331133  0.44734093
   0.16668354  0.00010124  0.44740514
   0.16376728  0.33268132  0.44654694
   0.16669304  0.66659595  0.44739174
   0.49998313  0.00010124  0.44740514
   0.50289938  0.33268132  0.44654694
   0.49997362  0.66659595  0.44739174
   0.83333333  0.00001356  0.44733831
   0.83333333  0.33335832  0.44738613
   0.83333333  0.66666710  0.44734547
   0.33333333  0.33302767  0.50241345
   0.33333333  0.38368601  0.52269248
Direct configuration=     6
   0.00000000  0.00000000  0.00000000
   0.00000000  0.33333333  0.00000000
   0.00000000  0.66666667  0.00000000
   0.33333333  0.00000000  0.00000000
   0.33333333  0.33333333  0.00000000
   0.33333333  0.66666667  0.00000000
   0.66666667  0.00000000  0.00000000
   0.66666667  0.33333333  0.00000000
   0.66666667  0.66666667  0.00000000
   0.16666667  0.16666667  0.00000000
   0.16666667  0.50000000  0.00000000
   0.16666667  0.83333333  0.00000000
   0.50000000  0.16666667  0.00000000
   0.50000000  0.50000000  0.00000000
   0.50000000  0.83333333  0.00000000
   0.83333333  0.16666667  0.00000000
   0.83333333  0.50000000  0.00000000
   0.83333333  0.83333333  0.00000000
   0.00000000  0.16666667  0.06551164
   0.00000000  0.50000000  0.06551164
   0.00000000  0.83333333  0.06551164
   0.33333333  0.16666667  0.06551164
   0.33333333  0.50000000  0.06551164
   0.33333333  0.83333333  0.06551164
   0.66666667  0.16666667  0.06551164
   0.66666667  0.50000000  0.06551164
   0.66666667  0.83333333  0.06551164
   0.16666667  0.00000000  0.06551164
   0.16666667  0.33333333  0.06551164
   0.16666667  0.66666667  0.06551164
   0.50000000  0.00000000  0.06551164
   0.50000000  0.33333333  0.06551164
   0.50000000  0.66666667  0.06551164
   0.83333333  0.00000000  0.06551164
   0.83333333  0.33333333  0.06551164
   0.83333333  0.66666667  0.06551164
   0.00000000  0.00000000  0.13119553
   0.00000000  0.33333333  0.13119553
   0.00000000  0.66666667  0.13119553
   0.33333333  0.00000000  0.13119553
   0.33333333  0.33333333  0.13119553
   0.33333333  0.66666667  0.13119553
   0.66666667  0.00000000  0.13119553
   0.66666667  0.33333333  0.13119553
   0.66666667  0.66666667  0.13119553
   0.16666667  0.16666667  0.13119553
   0.16666667  0.50000000  0.13119553
   0.16666667  0.83333333  0.13119553
   0.50000000  0.16666667  0.13119553
   0.50000000  0.50000000  0.13119553