  10  10   0   0
  0.2234684E+02  0.3630000E-09  0.2566798E-09  0.2398379E-08  0.5000000E-15
  1.000000000000000E-004
  CAR 
 unknown system                          
     11.77292946     -9.99984563  301      0.88017106      1.00000000
    -10.000  0.0000E+00  0.0000E+00  0.0000E+00  0.0000E+00
     -9.927  0.0000E+00  0.0000E+00  0.0000E+00  0.0000E+00
     -9.855  0.0000E+00  0.0000E+00  0.0000E+00  0.0000E+00
     -9.782  0.0000E+00  0.0000E+00  0.0000E+00  0.0000E+00
     -9.710  0.0000E+00  0.0000E+00  0.0000E+00  0.0000E+00
     -9.637 -0.3514E-31 -0.3514E-31 -0.2550E-32 -0.2550E-32
     -9.564 -0.1116E-28 -0.1116E-28 -0.8124E-30 -0.8124E-30
     -9.492 -0.2723E-26 -0.2723E-26 -0.1984E-27 -0.1984E-27
     -9.419 -0.5093E-24 -0.5093E-24 -0.3716E-25 -0.3716E-25
     -9.347 -0.7298E-22 -0.7298E-22 -0.5333E-23 -0.5333E-23
     -9.274 -0.8008E-20 -0.8008E-20 -0.5865E-21 -0.5865E-21
     -9.202 -0.6727E-18 -0.6727E-18 -0.4941E-19 -0.4941E-19
     -9.129 -0.4185E-16 -0.4185E-16 -0.3086E-17 -0.3086E-17
     -9.056 -0.2048E-14 -0.2048E-14 -0.1517E-15 -0.1517E-15
     -8.984 -0.7641E-13 -0.7641E-13 -0.5697E-14 -0.5697E-14
     -8.911 -0.2171E-11 -0.2171E-11 -0.1633E-12 -0.1633E-12
     -8.839 -0.4688E-10 -0.4688E-10 -0.3566E-11 -0.3566E-11
     -8.766 -0.7671E-09 -0.7671E-09 -0.5924E-10 -0.5924E-10
     -8.693 -0.9473E-08 -0.9473E-08 -0.7467E-09 -0.7467E-09
     -8.621 -0.8772E-07 -0.8772E-07 -0.7113E-08 -0.7113E-08
     -8.548 -0.6033E-06 -0.6033E-06 -0.5090E-07 -0.5090E-07
     -8.476 -0.3031E-05 -0.3031E-05 -0.2708E-06 -0.2708E-06
     -8.403 -0.1076E-04 -0.1076E-04 -0.1052E-05 -0.1052E-05
     -8.331 -0.2493E-04 -0.2493E-04 -0.2861E-05 -0.2861E-05
     -8.258 -0.2725E-04 -0.2725E-04 -0.4839E-05 -0.4839E-05
     -8.185  0.3615E-04  0.3615E-04 -0.2216E-05 -0.2216E-05
     -8.113  0.2147E-03  0.2147E-03  0.1337E-04  0.1337E-04
     -8.040  0.4524E-03  0.4524E-03  0.4620E-04  0.4620E-04
     -7.968  0.5767E-03  0.5767E-03  0.8806E-04  0.8806E-04
     -7.895  0.4759E-03  0.4759E-03  0.1226E-03  0.1226E-03
     -7.823  0.2410E-03  0.2410E-03  0.1401E-03  0.1401E-03
     -7.750  0.4760E-04  0.4760E-04  0.1435E-03  0.1435E-03
     -7.677 -0.3510E-04 -0.3510E-04  0.1410E-03  0.1410E-03
     -7.605 -0.5114E-04 -0.5114E-04  0.1373E-03  0.1373E-03
     -7.532 -0.4025E-04 -0.4025E-04  0.1344E-03  0.1344E-03
     -7.460  0.2721E-04  0.2721E-04  0.1363E-03  0.1363E-03
     -7.387  0.1972E-03  0.1972E-03  0.1506E-03  0.1506E-03
     -7.315  0.4124E-03  0.4124E-03  0.1806E-03  0.1806E-03
     -7.242  0.5085E-03  0.5085E-03  0.2175E-03  0.2175E-03
     -7.169  0.4324E-03  0.4324E-03  0.2489E-03  0.2489E-03
     -7.097  0.4006E-03  0.4006E-03  0.2779E-03  0.2779E-03
     -7.024  0.6614E-03  0.6614E-03  0.3259E-03  0.3259E-03
     -6.952  0.1130E-02  0.1130E-02  0.4079E-03  0.4079E-03
     -6.879  0.1470E-02  0.1470E-02  0.5146E-03  0.5146E-03
     -6.807  0.1540E-02  0.1540E-02  0.6263E-03  0.6263E-03
     -6.734  0.1491E-02  0.1491E-02  0.7345E-03  0.7345E-03
     -6.661  0.1400E-02  0.1400E-02  0.8361E-03  0.8361E-03
     -6.589  0.1136E-02  0.1136E-02  0.9186E-03  0.9186E-03
     -6.516  0.6681E-03  0.6681E-03  0.9671E-03  0.9671E-03
     -6.444  0.2167E-03  0.2167E-03  0.9828E-03  0.9828E-03
     -6.371 -0.2309E-04 -0.2309E-04  0.9811E-03  0.9811E-03
     -6.298 -0.7410E-04 -0.7410E-04  0.9757E-03  0.9757E-03
     -6.226 -0.6840E-04 -0.6840E-04  0.9708E-03  0.9708E-03
     -6.153 -0.9351E-04 -0.9351E-04  0.9640E-03  0.9640E-03
     -6.081 -0.1338E-03 -0.1338E-03  0.9543E-03  0.9543E-03
     -6.008 -0.3829E-04 -0.3829E-04  0.9515E-03  0.9515E-03
     -5.936  0.4191E-03  0.4191E-03  0.9819E-03  0.9819E-03
     -5.863  0.1280E-02  0.1280E-02  0.1075E-02  0.1075E-02
     -5.790  0.2256E-02  0.2256E-02  0.1238E-02  0.1238E-02
     -5.718  0.3060E-02  0.3060E-02  0.1461E-02  0.1461E-02
     -5.645  0.3669E-02  0.3669E-02  0.1727E-02  0.1727E-02
     -5.573  0.3966E-02  0.3966E-02  0.2015E-02  0.2015E-02
     -5.500  0.3553E-02  0.3553E-02  0.2273E-02  0.2273E-02
     -5.428  0.2368E-02  0.2368E-02  0.2444E-02  0.2444E-02
     -5.355  0.1009E-02  0.1009E-02  0.2518E-02  0.2518E-02
     -5.282  0.1269E-03  0.1269E-03  0.2527E-02  0.2527E-02
     -5.210 -0.1740E-03 -0.1740E-03  0.2514E-02  0.2514E-02
     -5.137 -0.1959E-03 -0.1959E-03  0.2500E-02  0.2500E-02
     -5.065 -0.2093E-03 -0.2093E-03  0.2485E-02  0.2485E-02
     -4.992 -0.2183E-03 -0.2183E-03  0.2469E-02  0.2469E-02
     -4.920  0.8609E-04  0.8609E-04  0.2475E-02  0.2475E-02
     -4.847  0.1123E-02  0.1123E-02  0.2557E-02  0.2557E-02
     -4.774  0.2819E-02  0.2819E-02  0.2761E-02  0.2761E-02
     -4.702  0.4205E-02  0.4205E-02  0.3066E-02  0.3066E-02
     -4.629  0.4164E-02  0.4164E-02  0.3369E-02  0.3369E-02
     -4.557  0.2717E-02  0.2717E-02  0.3566E-02  0.3566E-02
     -4.484  0.9981E-03  0.9981E-03  0.3638E-02  0.3638E-02
     -4.412 -0.5739E-04 -0.5739E-04  0.3634E-02  0.3634E-02
     -4.339 -0.4227E-03 -0.4227E-03  0.3603E-02  0.3603E-02
     -4.266 -0.3971E-03 -0.3971E-03  0.3575E-02  0.3575E-02
     -4.194  0.1361E-03  0.1361E-03  0.3584E-02  0.3584E-02
     -4.121  0.1585E-02  0.1585E-02  0.3699E-02  0.3699E-02
     -4.049  0.3755E-02  0.3755E-02  0.3972E-02  0.3972E-02
     -3.976  0.5408E-02  0.5408E-02  0.4364E-02  0.4364E-02
     -3.903  0.5306E-02  0.5306E-02  0.4750E-02  0.4750E-02
     -3.831  0.3682E-02  0.3682E-02  0.5017E-02  0.5017E-02
     -3.758  0.2052E-02  0.2052E-02  0.5166E-02  0.5166E-02
     -3.686  0.1573E-02  0.1573E-02  0.5280E-02  0.5280E-02
     -3.613  0.2128E-02  0.2128E-02  0.5434E-02  0.5434E-02
     -3.541  0.3050E-02  0.3050E-02  0.5656E-02  0.5656E-02
     -3.468  0.4102E-02  0.4102E-02  0.5953E-02  0.5953E-02
     -3.395  0.5322E-02  0.5322E-02  0.6340E-02  0.6340E-02
     -3.323  0.6451E-02  0.6451E-02  0.6808E-02  0.6808E-02
     -3.250  0.7178E-02  0.7178E-02  0.7329E-02  0.7329E-02
     -3.178  0.7720E-02  0.7720E-02  0.7889E-02  0.7889E-02
     -3.105  0.8534E-02  0.8534E-02  0.8508E-02  0.8508E-02
     -3.033  0.9644E-02  0.9644E-02  0.9208E-02  0.9208E-02
     -2.960  0.1074E-01  0.1074E-01  0.9988E-02  0.9988E-02
     -2.887  0.1156E-01  0.1156E-01  0.1083E-01  0.1083E-01
     -2.815  0.1174E-01  0.1174E-01  0.1168E-01  0.1168E-01
     -2.742  0.1090E-01  0.1090E-01  0.1247E-01  0.1247E-01
     -2.670  0.9396E-02  0.9396E-02  0.1315E-01  0.1315E-01
     -2.597  0.8400E-02  0.8400E-02  0.1376E-01  0.1376E-01
     -2.525  0.8834E-02  0.8834E-02  0.1440E-01  0.1440E-01
     -2.452  0.1028E-01  0.1028E-01  0.1515E-01  0.1515E-01
     -2.379  0.1164E-01  0.1164E-01  0.1599E-01  0.1599E-01
     -2.307  0.1260E-01  0.1260E-01  0.1691E-01  0.1691E-01
     -2.234  0.1360E-01  0.1360E-01  0.1790E-01  0.1790E-01
     -2.162  0.1451E-01  0.1451E-01  0.1895E-01  0.1895E-01
     -2.089  0.1480E-01  0.1480E-01  0.2002E-01  0.2002E-01
     -2.016  0.1512E-01  0.1512E-01  0.2112E-01  0.2112E-01
     -1.944  0.1679E-01  0.1679E-01  0.2234E-01  0.2234E-01
     -1.871  0.1956E-01  0.1956E-01  0.2376E-01  0.2376E-01
     -1.799  0.2128E-01  0.2128E-01  0.2530E-01  0.2530E-01
     -1.726  0.2046E-01  0.2046E-01  0.2679E-01  0.2679E-01
     -1.654  0.1799E-01  0.1799E-01  0.2809E-01  0.2809E-01
     -1.581  0.1585E-01  0.1585E-01  0.2924E-01  0.2924E-01
     -1.508  0.1474E-01  0.1474E-01  0.3031E-01  0.3031E-01
     -1.436  0.1371E-01  0.1371E-01  0.3131E-01  0.3131E-01
     -1.363  0.1212E-01  0.1212E-01  0.3219E-01  0.3219E-01
     -1.291  0.1106E-01  0.1106E-01  0.3299E-01  0.3299E-01
     -1.218  0.1221E-01  0.1221E-01  0.3388E-01  0.3388E-01
     -1.146  0.1579E-01  0.1579E-01  0.3502E-01  0.3502E-01
     -1.073  0.2028E-01  0.2028E-01  0.3650E-01  0.3650E-01
     -1.000  0.2383E-01  0.2383E-01  0.3822E-01  0.3822E-01
     -0.928  0.2507E-01  0.2507E-01  0.4004E-01  0.4004E-01
     -0.855  0.2373E-01  0.2373E-01  0.4177E-01  0.4177E-01
     -0.783  0.2147E-01  0.2147E-01  0.4332E-01  0.4332E-01
     -0.710  0.2075E-01  0.2075E-01  0.4483E-01  0.4483E-01
     -0.638  0.2200E-01  0.2200E-01  0.4643E-01  0.4643E-01
     -0.565  0.2324E-01  0.2324E-01  0.4811E-01  0.4811E-01
     -0.492  0.2279E-01  0.2279E-01  0.4977E-01  0.4977E-01
     -0.420  0.2052E-01  0.2052E-01  0.5126E-01  0.5126E-01
     -0.347  0.1702E-01  0.1702E-01  0.5249E-01  0.5249E-01
     -0.275  0.1297E-01  0.1297E-01  0.5343E-01  0.5343E-01
     -0.202  0.9246E-02  0.9246E-02  0.5410E-01  0.5410E-01
     -0.130  0.6478E-02  0.6478E-02  0.5457E-01  0.5457E-01
     -0.057  0.4465E-02  0.4465E-02  0.5490E-01  0.5490E-01
      0.016  0.2665E-02  0.2665E-02  0.5509E-01  0.5509E-01
      0.088  0.1072E-02  0.1072E-02  0.5517E-01  0.5517E-01
      0.161  0.5695E-04  0.5695E-04  0.5517E-01  0.5517E-01
      0.233 -0.3088E-03 -0.3088E-03  0.5515E-01  0.5515E-01
      0.306 -0.2892E-03 -0.2892E-03  0.5513E-01  0.5513E-01
      0.379 -0.4710E-04 -0.4710E-04  0.5513E-01  0.5513E-01
      0.451  0.4740E-03  0.4740E-03  0.5516E-01  0.5516E-01
      0.524  0.1264E-02  0.1264E-02  0.5525E-01  0.5525E-01
      0.596  0.2102E-02  0.2102E-02  0.5541E-01  0.5541E-01
      0.669  0.2784E-02  0.2784E-02  0.5561E-01  0.5561E-01
      0.741  0.3229E-02  0.3229E-02  0.5584E-01  0.5584E-01
      0.814  0.3236E-02  0.3236E-02  0.5608E-01  0.5608E-01
      0.887  0.2561E-02  0.2561E-02  0.5626E-01  0.5626E-01
      0.959  0.1434E-02  0.1434E-02  0.5637E-01  0.5637E-01
      1.032  0.5642E-03  0.5642E-03  0.5641E-01  0.5641E-01
      1.104  0.4200E-03  0.4200E-03  0.5644E-01  0.5644E-01
      1.177  0.7669E-03  0.7669E-03  0.5649E-01  0.5649E-01
      1.249  0.1008E-02  0.1008E-02  0.5657E-01  0.5657E-01
      1.322  0.8874E-03  0.8874E-03  0.5663E-01  0.5663E-01
      1.395  0.7072E-03  0.7072E-03  0.5668E-01  0.5668E-01
      1.467  0.7779E-03  0.7779E-03  0.5674E-01  0.5674E-01
      1.540  0.9507E-03  0.9507E-03  0.5681E-01  0.5681E-01
      1.612  0.9834E-03  0.9834E-03  0.5688E-01  0.5688E-01
      1.685  0.1086E-02  0.1086E-02  0.5696E-01  0.5696E-01
      1.757  0.1576E-02  0.1576E-02  0.5707E-01  0.5707E-01
      1.830  0.2133E-02  0.2133E-02  0.5723E-01  0.5723E-01
      1.903  0.2048E-02  0.2048E-02  0.5738E-01  0.5738E-01
      1.975  0.1239E-02  0.1239E-02  0.5747E-01  0.5747E-01
      2.048  0.4754E-03  0.4754E-03  0.5750E-01  0.5750E-01
      2.120  0.5159E-03  0.5159E-03  0.5754E-01  0.5754E-01
      2.193  0.1312E-02  0.1312E-02  0.5763E-01  0.5763E-01
      2.265  0.2061E-02  0.2061E-02  0.5778E-01  0.5778E-01
      2.338  0.2079E-02  0.2079E-02  0.5793E-01  0.5793E-01
      2.411  0.1581E-02  0.1581E-02  0.5805E-01  0.5805E-01
      2.483  0.1304E-02  0.1304E-02  0.5814E-01  0.5814E-01
      2.556  0.1508E-02  0.1508E-02  0.5825E-01  0.5825E-01
      2.628  0.1900E-02  0.1900E-02  0.5839E-01  0.5839E-01
      2.701  0.2250E-02  0.2250E-02  0.5855E-01  0.5855E-01
      2.774  0.2410E-02  0.2410E-02  0.5873E-01  0.5873E-01
      2.846  0.2126E-02  0.2126E-02  0.5888E-01  0.5888E-01
      2.919  0.1514E-02  0.1514E-02  0.5899E-01  0.5899E-01
      2.991  0.1260E-02  0.1260E-02  0.5908E-01  0.5908E-01
      3.064  0.1756E-02  0.1756E-02  0.5921E-01  0.5921E-01
      3.136  0.2441E-02  0.2441E-02  0.5939E-01  0.5939E-01
      3.209  0.2453E-02  0.2453E-02  0.5957E-01  0.5957E-01
      3.282  0.1659E-02  0.1659E-02  0.5969E-01  0.5969E-01
      3.354  0.6736E-03  0.6736E-03  0.5974E-01  0.5974E-01
      3.427  0.6091E-04  0.6091E-04  0.5974E-01  0.5974E-01
      3.499 -0.1186E-03 -0.1186E-03  0.5973E-01  0.5973E-01
      3.572 -0.9422E-04 -0.9422E-04  0.5973E-01  0.5973E-01
      3.644 -0.5528E-04 -0.5528E-04  0.5972E-01  0.5972E-01
      3.717 -0.7698E-04 -0.7698E-04  0.5972E-01  0.5972E-01
      3.790 -0.1733E-03 -0.1733E-03  0.5970E-01  0.5970E-01
      3.862 -0.2485E-03 -0.2485E-03  0.5969E-01  0.5969E-01
      3.935  0.4572E-04  0.4571E-04  0.5969E-01  0.5969E-01
      4.007  0.1185E-02  0.1185E-02  0.5977E-01  0.5977E-01
      4.080  0.3108E-02  0.3108E-02  0.6000E-01  0.6000E-01
      4.152  0.4766E-02  0.4766E-02  0.6035E-01  0.6035E-01
      4.225  0.4998E-02  0.4998E-02  0.6071E-01  0.6071E-01
      4.298  0.3886E-02  0.3886E-02  0.6099E-01  0.6099E-01
      4.370  0.2591E-02  0.2591E-02  0.6118E-01  0.6118E-01
      4.443  0.1945E-02  0.1945E-02  0.6132E-01  0.6132E-01
      4.515  0.1833E-02  0.1833E-02  0.6145E-01  0.6145E-01
      4.588  0.1761E-02  0.1761E-02  0.6158E-01  0.6158E-01
      4.660  0.1457E-02  0.1457E-02  0.6169E-01  0.6169E-01
      4.733  0.9512E-03  0.9512E-03  0.6176E-01  0.6176E-01
      4.806  0.4308E-03  0.4309E-03  0.6179E-01  0.6179E-01
      4.878  0.1812E-03  0.1813E-03  0.6180E-01  0.6180E-01
      4.951  0.4691E-03  0.4691E-03  0.6183E-01  0.6183E-01
      5.023  0.1249E-02  0.1249E-02  0.6192E-01  0.6192E-01
      5.096  0.1996E-02  0.1996E-02  0.6207E-01  0.6207E-01
      5.169  0.2082E-02  0.2082E-02  0.6222E-01  0.6222E-01
      5.241  0.1416E-02  0.1416E-02  0.6232E-01  0.6232E-01
      5.314  0.5039E-03  0.5039E-03  0.6236E-01  0.6236E-01
      5.386 -0.9848E-04 -0.9846E-04  0.6235E-01  0.6235E-01
      5.459 -0.1145E-03 -0.1145E-03  0.6234E-01  0.6234E-01
      5.531  0.5542E-03  0.5542E-03  0.6239E-01  0.6239E-01
      5.604  0.1811E-02  0.1811E-02  0.6252E-01  0.6252E-01
      5.677  0.3186E-02  0.3186E-02  0.6275E-01  0.6275E-01
      5.749  0.4020E-02  0.4020E-02  0.6304E-01  0.6304E-01
      5.822  0.4026E-02  0.4026E-02  0.6333E-01  0.6333E-01
      5.894  0.3608E-02  0.3608E-02  0.6359E-01  0.6359E-01
      5.967  0.3478E-02  0.3478E-02  0.6385E-01  0.6385E-01
      6.039  0.3889E-02  0.3889E-02  0.6413E-01  0.6413E-01
      6.112  0.4387E-02  0.4387E-02  0.6445E-01  0.6445E-01
      6.185  0.4276E-02  0.4277E-02  0.6476E-01  0.6476E-01
      6.257  0.3244E-02  0.3244E-02  0.6499E-01  0.6499E-01
      6.330  0.1690E-02  0.1690E-02  0.6512E-01  0.6512E-01
      6.402  0.4658E-03  0.4658E-03  0.6515E-01  0.6515E-01
      6.475  0.2174E-03  0.2174E-03  0.6516E-01  0.6516E-01
      6.547  0.1040E-02  0.1040E-02  0.6524E-01  0.6524E-01
      6.620  0.2499E-02  0.2499E-02  0.6542E-01  0.6542E-01
      6.693  0.3716E-02  0.3715E-02  0.6569E-01  0.6569E-01
      6.765  0.3868E-02  0.3868E-02  0.6597E-01  0.6597E-01
      6.838  0.3034E-02  0.3034E-02  0.6619E-01  0.6619E-01
      6.910  0.2251E-02  0.2251E-02  0.6636E-01  0.6636E-01
      6.983  0.2447E-02  0.2447E-02  0.6653E-01  0.6653E-01
      7.055  0.3425E-02  0.3425E-02  0.6678E-01  0.6678E-01
      7.128  0.4155E-02  0.4155E-02  0.6708E-01  0.6708E-01
      7.201  0.3951E-02  0.3951E-02  0.6737E-01  0.6737E-01
      7.273  0.2967E-02  0.2967E-02  0.6759E-01  0.6759E-01
      7.346  0.1738E-02  0.1738E-02  0.6771E-01  0.6771E-01
      7.418  0.8294E-03  0.8294E-03  0.6777E-01  0.6777E-01
      7.491  0.7107E-03  0.7104E-03  0.6782E-01  0.6782E-01
      7.564  0.1346E-02  0.1346E-02  0.6792E-01  0.6792E-01
      7.636  0.1985E-02  0.1985E-02  0.6806E-01  0.6806E-01
      7.709  0.1892E-02  0.1893E-02  0.6820E-01  0.6820E-01
      7.781  0.1300E-02  0.1301E-02  0.6830E-01  0.6830E-01
      7.854  0.1167E-02  0.1168E-02  0.6838E-01  0.6838E-01
      7.926  0.2028E-02  0.2028E-02  0.6853E-01  0.6853E-01
      7.999  0.3565E-02  0.3565E-02  0.6879E-01  0.6879E-01
      8.072  0.5200E-02  0.5200E-02  0.6916E-01  0.6916E-01
      8.144  0.6455E-02  0.6455E-02  0.6963E-01  0.6963E-01
      8.217  0.6766E-02  0.6766E-02  0.7012E-01  0.7012E-01
      8.289  0.5716E-02  0.5716E-02  0.7054E-01  0.7054E-01
      8.362  0.3668E-02  0.3668E-02  0.7081E-01  0.7081E-01
      8.434  0.1703E-02  0.1703E-02  0.7093E-01  0.7093E-01
      8.507  0.8501E-03  0.8499E-03  0.7099E-01  0.7099E-01
      8.580  0.1424E-02  0.1423E-02  0.7109E-01  0.7109E-01
      8.652  0.2759E-02  0.2758E-02  0.7129E-01  0.7129E-01
      8.725  0.3621E-02  0.3621E-02  0.7156E-01  0.7156E-01
      8.797  0.3295E-02  0.3296E-02  0.7180E-01  0.7180E-01
      8.870  0.2200E-02  0.2200E-02  0.7196E-01  0.7196E-01
      8.942  0.1305E-02  0.1305E-02  0.7205E-01  0.7205E-01
      9.015  0.1271E-02  0.1271E-02  0.7214E-01  0.7214E-01
      9.088  0.2073E-02  0.2073E-02  0.7229E-01  0.7229E-01
      9.160  0.3066E-02  0.3066E-02  0.7252E-01  0.7252E-01
      9.233  0.3502E-02  0.3502E-02  0.7277E-01  0.7277E-01
      9.305  0.3272E-02  0.3272E-02  0.7301E-01  0.7301E-01
      9.378  0.2986E-02  0.2987E-02  0.7322E-01  0.7322E-01
      9.451  0.3169E-02  0.3169E-02  0.7345E-01  0.7345E-01
      9.523  0.3653E-02  0.3653E-02  0.7372E-01  0.7372E-01
      9.596  0.3990E-02  0.3991E-02  0.7401E-01  0.7401E-01
      9.668  0.4053E-02  0.4053E-02  0.7430E-01  0.7430E-01
      9.741  0.3860E-02  0.3859E-02  0.7458E-01  0.7458E-01
      9.813  0.3213E-02  0.3213E-02  0.7482E-01  0.7482E-01
      9.886  0.2044E-02  0.2044E-02  0.7496E-01  0.7496E-01
      9.959  0.8062E-03  0.8065E-03  0.7502E-01  0.7502E-01
     10.031  0.4480E-04  0.4491E-04  0.7503E-01  0.7503E-01
     10.104 -0.1705E-03 -0.1705E-03  0.7501E-01  0.7501E-01
     10.176 -0.1236E-03 -0.1236E-03  0.7500E-01  0.7500E-01
     10.249 -0.4937E-04 -0.4938E-04  0.7500E-01  0.7500E-01
     10.321 -0.1329E-04 -0.1329E-04  0.7500E-01  0.7500E-01
     10.394 -0.2557E-05 -0.2558E-05  0.7500E-01  0.7500E-01
     10.467 -0.3614E-06 -0.3615E-06  0.7500E-01  0.7500E-01
     10.539 -0.3805E-07 -0.3807E-07  0.7500E-01  0.7500E-01
     10.612 -0.3010E-08 -0.3012E-08  0.7500E-01  0.7500E-01
     10.684 -0.1800E-09 -0.1801E-09  0.7500E-01  0.7500E-01
     10.757 -0.8162E-11 -0.8167E-11  0.7500E-01  0.7500E-01
     10.829 -0.2816E-12 -0.2818E-12  0.7500E-01  0.7500E-01
     10.902 -0.7404E-14 -0.7410E-14  0.7500E-01  0.7500E-01
     10.975 -0.1483E-15 -0.1483E-15  0.7500E-01  0.7500E-01
     11.047 -0.2550E-17 -0.2550E-17  0.7500E-01  0.7500E-01
     11.120  0.0000E+00  0.0000E+00  0.7500E-01  0.7500E-01
     11.192  0.0000E+00  0.0000E+00  0.7500E-01  0.7500E-01
     11.265  0.0000E+00  0.0000E+00  0.7500E-01  0.7500E-01
     11.337  0.0000E+00  0.0000E+00  0.7500E-01  0.7500E-01
     11.410  0.0000E+00  0.0000E+00  0.7500E-01  0.7500E-01
     11.483  0.0000E+00  0.0000E+00  0.7500E-01  0.7500E-01
     11.555  0.0000E+00  0.0000E+00  0.7500E-01  0.7500E-01
     11.628  0.0000E+00  0.0000E+00  0.7500E-01  0.7500E-01
     11.700  0.0000E+00  0.0000E+00  0.7500E-01  0.7500E-01
     11.773  0.0000E+00  0.0000E+00  0.7500E-01  0.7500E-01
