 vasp.6.3.2 27Jun22 (build Aug 17 2022 15:43:34) complex                        
  
 executed on           tv2STDVTST date 2025.02.04  13:32:01
 running   20 mpi-ranks, with    1 threads/rank
 distrk:  each k-point on   20 cores,    1 groups
 distr:  one band on NCORE=   5 cores,    4 groups


--------------------------------------------------------------------------------------------------------


 -----------------------------------------------------------------------------
|                                                                             |
|           W    W    AA    RRRRR   N    N  II  N    N   GGGG   !!!           |
|           W    W   A  A   R    R  NN   N  II  NN   N  G    G  !!!           |
|           W    W  A    A  R    R  N N  N  II  N N  N  G       !!!           |
|           W WW W  AAAAAA  RRRRR   N  N N  II  N  N N  G  GGG   !            |
|           WW  WW  A    A  R   R   N   NN  II  N   NN  G    G                |
|           W    W  A    A  R    R  N    N  II  N    N   GGGG   !!!           |
|                                                                             |
|     Found issues when parsing the INCAR file                                |
|     In line 61: Tagname --- R W I G S contains invalid characters.          |
|     Please check if the interpretation in the OUTCAR file is correct.       |
|                                                                             |
 -----------------------------------------------------------------------------

 INCAR:
    = \=\=\=\=\=\=\=\=\=\=\=\=\=\=\=\=\=\=\=\=\=\=\=\=\=\=\=\=\=\=\=\=\=\=\=\=\=\=\=\=\=\=\=\=\=\=\=\=\=\=\=\=\=\=\=\=\=\=\=\=\=\=\=\=\=\=\=\=\=\=\=\=
    = \=\=\=\=\=\=\=\=\=\=\=\=\=\=\=\=\=\=\=\=\=\=\=\=\=\=\=\=\=\=\=\=\=\=\=\=\=\=\=\=\=\=\=\=\=\=\=\=\=\=\=\=\=\=\=\=\=\=\=\=\=\=\=\=\=\=\=\=\=\=\=\=
   ISTART = 0
   ICHARG = 2
   IPIPOL = 3
   IVDW = 11
    = \=\=\=\=\=\=\=\=\=\=\=\=\=\=\=\=\=\=\=\=\=\=\=\=\=\=\=\=\=\=\=\=\=\=\=\=\=\=\=\=\=\=\=\=\=\=\=\=\=\=\=\=\=\=\=\=\=\=\=\=\=\=\=\=\=\=\=\=\=\=\=\=
    = \=\=\=\=\=\=\=\=\=\=\=\=\=\=\=\=\=\=\=\=\=\=\=\=\=\=\=\=\=\=\=\=\=\=\=\=\=\=\=\=\=\=\=\=\=\=\=\=\=\=\=\=\=\=\=\=\=\=\=\=\=\=\=\=\=\=\=\=\=\=\=\=
   ISPIN = 2
    = \=\=\=\=\=\=\=\=\=\=\=\=\=\=\=\=\=\=\=\=\=\=\=\=\=\=\=\=\=\=\=\=\=\=\=\=\=\=\=\=\=\=\=\=\=\=\=\=\=\=\=\=\=\=\=\=\=\=\=\=\=\=\=\=\=\=\=\=\=\=\=\=
    = \=\=\=\=\=\=\=\=\=\=\=\=\=\=\=\=\=\=\=\=\=\=\=\=\=\=\=\=\=\=\=\=\=\=\=\=\=\=\=\=\=\=\=\=\=\=\=\=\=\=\=\=\=\=\=\=\=\=\=\=\=\=\=\=\=\=\=\=\=\=\=\=
   ENCUT = 400
   PREC = Normal
   EDIFF = 2E-04
   GGA = PE
   ISMEAR = 1
   SIGMA = 0.2
   LREAL = .FALSE.
    = \=\=\=\=\=\=\=\=\=\=\=\=\=\=\=\=\=\=\=\=\=\=\=\=\=\=\=\=\=\=\=\=\=\=\=\=\=\=\=\=\=\=\=\=\=\=\=\=\=\=\=\=\=\=\=\=\=\=\=\=\=\=\=\=\=\=\=\=\=\=\=\=
    = \=\=\=\=\=\=\=\=\=\=\=\=\=\=\=\=\=\=\=\=\=\=\=\=\=\=\=\=\=\=\=\=\=\=\=\=\=\=\=\=\=\=\=\=\=\=\=\=\=\=\=\=\=\=\=\=\=\=\=\=\=\=\=\=\=\=\=\=\=\=\=\=
   ISYM = 1
   NSW = 800
   IBRION = 2
   POTIM = 0.5
   ISIF = 2
   EDIFFG = -.03
    = \=\=\=\=\=\=\=\=\=\=\=\=\=\=\=\=\=\=\=\=\=\=\=\=\=\=\=\=\=\=\=\=\=\=\=\=\=\=\=\=\=\=\=\=\=\=\=\=\=\=\=\=\=\=\=\=\=\=\=\=\=\=\=\=\=\=\=\=\=\=\=\=
    = \=\=\=\=\=\=\=\=\=\=\=\=\=\=\=\=\=\=\=\=\=\=\=\=\=\=\=\=\=\=\=\=\=\=\=\=\=\=\=\=\=\=\=\=\=\=\=\=\=\=\=\=\=\=\=\=\=\=\=\=\=\=\=\=\=\=\=\=\=\=\=\=
   NPAR = 4
   LWAVE = .FALSE.
   LCHARG = .FALSE.

 POTCAR:    PAW_PBE Cu 22Jun2005                  
 POTCAR:    PAW_PBE H 15Jun2001                   
 -----------------------------------------------------------------------------
|                                                                             |
|           W    W    AA    RRRRR   N    N  II  N    N   GGGG   !!!           |
|           W    W   A  A   R    R  NN   N  II  NN   N  G    G  !!!           |
|           W    W  A    A  R    R  N N  N  II  N N  N  G       !!!           |
|           W WW W  AAAAAA  RRRRR   N  N N  II  N  N N  G  GGG   !            |
|           WW  WW  A    A  R   R   N   NN  II  N   NN  G    G                |
|           W    W  A    A  R    R  N    N  II  N    N   GGGG   !!!           |
|                                                                             |
|     You use a magnetic or noncollinear calculation, but did not specify     |
|     the initial magnetic moment with the MAGMOM tag. Note that a            |
|     default of 1 will be used for all atoms. This ferromagnetic setup       |
|     may break the symmetry of the crystal, in particular it may rule        |
|     out finding an antiferromagnetic solution. Thence, we recommend         |
|     setting the initial magnetic moment manually or verifying carefully     |
|     that this magnetic setup is desired.                                    |
|                                                                             |
 -----------------------------------------------------------------------------

 POTCAR:    PAW_PBE Cu 22Jun2005                  
   SHA256 =  0e71e558f37a4e8407882b4609ceaae59938afaad9ced71dfe8490308a0ab630 Cu/POTCAR             
   COPYR  = (c) Copyright 22Jun2005 Georg Kresse                                                    
   COPYR  = This file is part of the software VASP. Any use, copying, and all other rights are regul
   COPYR  = If you do not have a valid VASP license, you may not use, copy or distribute this file. 
   VRHFIN =Cu: d10 p1                                                                               
   LEXCH  = PE                                                                                      
   EATOM  =  1390.9808 eV,  102.2342 Ry                                                             
                                                                                                    
   TITEL  = PAW_PBE Cu 22Jun2005                                                                    
   LULTRA =        F    use ultrasoft PP ?                                                          
   IUNSCR =        1    unscreen: 0-lin 1-nonlin 2-no                                               
   RPACOR =    2.000    partial core radius                                                         
   POMASS =   63.546; ZVAL   =   11.000    mass and valenz                                          
   RCORE  =    2.300    outmost cutoff radius                                                       
   RWIGS  =    2.200; RWIGS  =    1.164    wigner-seitz radius (au A)                               
   ENMAX  =  295.446; ENMIN  =  221.585 eV                                                          
   ICORE  =        3    local potential                                                             
   LCOR   =        T    correct aug charges                                                         
   LPAW   =        T    paw PP                                                                      
   EAUG   =  586.980                                                                                
   DEXC   =    0.000                                                                                
   RMAX   =    2.344    core radius for proj-oper                                                   
   RAUG   =    1.300    factor for augmentation sphere                                              
   RDEP   =    2.302    radius for radial grids                                                     
   RDEPT  =    1.771    core radius for aug-charge                                                  
                                                                                                    
   Atomic configuration                                                                             
    9 entries                                                                                       
     n  l   j            E        occ.                                                              
     1  0  0.50     -8850.2468   2.0000                                                             
     2  0  0.50     -1062.3498   2.0000                                                             
     2  1  1.50      -916.8226   6.0000                                                             
     3  0  0.50      -114.6929   2.0000                                                             
     3  1  1.50       -72.1325   6.0000                                                             
     3  2  2.50        -5.0394  10.0000                                                             
     4  0  0.50        -4.6097   1.0000                                                             
     4  1  0.50        -4.0817   0.0000                                                             
     4  3  2.50        -1.3606   0.0000                                                             
   Description                                                                                      
     l       E           TYP  RCUT    TYP  RCUT                                                     
     2     -5.0393973     23  2.200                                                                 
     2     10.8846608     23  2.200                                                                 
     0     -4.6097109     23  2.200                                                                 
     0      8.2520465     23  2.200                                                                 
     1     -2.7211652     23  2.200                                                                 
     1     21.7055443     23  2.200                                                                 
     3      2.7211652     23  2.300                                                                 
  local pseudopotential read in
  partial core-charges read in
  partial kinetic energy density read in
  atomic valenz-charges read in
  non local Contribution for L=           2  read in
    real space projection operators read in
  non local Contribution for L=           2  read in
    real space projection operators read in
  non local Contribution for L=           0  read in
    real space projection operators read in
  non local Contribution for L=           0  read in
    real space projection operators read in
  non local Contribution for L=           1  read in
    real space projection operators read in
  non local Contribution for L=           1  read in
    real space projection operators read in
    PAW grid and wavefunctions read in
 
   number of l-projection  operators is LMAX  =           6
   number of lm-projection operators is LMMAX =          18
 
 POTCAR:    PAW_PBE H 15Jun2001                   
   SHA256 =  030f79b5d3ab3cf0e668861823c8fb652ff669f3e15e46930bd03bfd63a607b6 H/POTCAR              
   COPYR  = (c) Copyright 15Jun2001 Georg Kresse                                                    
   COPYR  = This file is part of the software VASP. Any use, copying, and all other rights are regul
   COPYR  = If you do not have a valid VASP license, you may not use, copy or distribute this file. 
   VRHFIN =H: ultrasoft test                                                                        
   LEXCH  = PE                                                                                      
   EATOM  =    12.4884 eV,    0.9179 Ry                                                             
                                                                                                    
   TITEL  = PAW_PBE H 15Jun2001                                                                     
   LULTRA =        F    use ultrasoft PP ?                                                          
   IUNSCR =        0    unscreen: 0-lin 1-nonlin 2-no                                               
   RPACOR =    0.000    partial core radius                                                         
   POMASS =    1.000; ZVAL   =    1.000    mass and valenz                                          
   RCORE  =    1.100    outmost cutoff radius                                                       
   RWIGS  =    0.700; RWIGS  =    0.370    wigner-seitz radius (au A)                               
   ENMAX  =  250.000; ENMIN  =  200.000 eV                                                          
   RCLOC  =    0.701    cutoff for local pot                                                        
   LCOR   =        T    correct aug charges                                                         
   LPAW   =        T    paw PP                                                                      
   EAUG   =  400.000                                                                                
   RMAX   =    1.123    core radius for proj-oper                                                   
   RAUG   =    1.200    factor for augmentation sphere                                              
   RDEP   =    1.112    radius for radial grids                                                     
   RDEPT  =    0.926    core radius for aug-charge                                                  
                                                                                                    
   Atomic configuration                                                                             
    2 entries                                                                                       
     n  l   j            E        occ.                                                              
     1  0  0.50        -6.4927   1.0000                                                             
     2  1  0.50        -3.4015   0.0000                                                             
   Description                                                                                      
     l       E           TYP  RCUT    TYP  RCUT                                                     
     0     -6.4927494     23  1.100                                                                 
     0      6.8029130     23  1.100                                                                 
     1     -4.0817478     23  1.100                                                                 
  local pseudopotential read in
  atomic valenz-charges read in
  non local Contribution for L=           0  read in
    real space projection operators read in
  non local Contribution for L=           0  read in
    real space projection operators read in
  non local Contribution for L=           1  read in
    real space projection operators read in
    PAW grid and wavefunctions read in
 
   number of l-projection  operators is LMAX  =           3
   number of lm-projection operators is LMMAX =           5
 
  PAW_PBE Cu 22Jun2005                  :
 energy of atom  1       EATOM=-1390.9808
 kinetic energy error for atom=    0.0232 (will be added to EATOM!!)
  PAW_PBE H 15Jun2001                   :
 energy of atom  2       EATOM=  -12.4884
 kinetic energy error for atom=    0.0098 (will be added to EATOM!!)
 
 
 POSCAR: FCC Cu
  positions in cartesian coordinates
  No initial velocities read in
 exchange correlation table for  LEXCH =        8
   RHO(1)=    0.500       N(1)  =     2000
   RHO(2)=  100.500       N(2)  =     4000

 VTST: version 4.2, (08/11/21)

 CHAIN: initializing optimizer
 
 OPT: Using VASP Conjugate-Gradient optimizer
 CHAIN: Read ICHAIN            0
 
 POSCAR: FCC Cu
  positions in cartesian coordinates
  No initial velocities read in
 


--------------------------------------------------------------------------------------------------------


 ion  position               nearest neighbor table
   1  0.000  0.000  0.000-   3 2.51   2 2.57   2 2.57   2 2.57   2 2.57
   2  0.500  0.500  0.054-   4 2.50   3 2.54   3 2.54   3 2.54   3 2.54   1 2.57   1 2.57   1 2.57
                             1 2.57
   3  0.000  0.000  0.105-   1 2.51   2 2.54   2 2.54   2 2.54   2 2.54   5 2.54   4 2.56   4 2.56
                             4 2.56   4 2.56
   4  0.500  0.500  0.158-   2 2.50   6 2.52   5 2.56   5 2.56   5 2.56   5 2.56   3 2.56   3 2.56
                             3 2.56   3 2.56
   5  0.000  0.000  0.211-   3 2.54   6 2.55   6 2.55   6 2.55   6 2.55   7 2.55   4 2.56   4 2.56
                             4 2.56   4 2.56
   6  0.500  0.500  0.263-   8 2.44   4 2.52   5 2.55   5 2.55   5 2.55   5 2.55   7 2.58   7 2.58
                             7 2.58   7 2.58
   7  0.000  0.000  0.317-   8 2.50   8 2.50   8 2.50   8 2.50   5 2.55   6 2.58   6 2.58   6 2.58
                             6 2.58
   8  0.500  0.500  0.365-   6 2.44   7 2.50   7 2.50   7 2.50   7 2.50
   9  0.500  0.000  0.427-  10 0.75
  10  0.500  0.206  0.449-   9 0.75
 
  LATTYP: Found a simple orthorhombic cell.
 ALAT       =     2.5667977333
 B/A-ratio  =     1.4142135422
 C/A-ratio  =     9.3438571494
  
  Lattice vectors:
  
 A1 = (   0.0000000000,  -2.5667977333,   0.0000000000)
 A2 = (   3.6300001144,   0.0000000000,   0.0000000000)
 A3 = (   0.0000000000,   0.0000000000,  23.9837913513)


Analysis of symmetry for initial positions (statically):
=====================================================================
 Subroutine PRICEL returns:
 Original cell was already a primitive cell.
 

 Routine SETGRP: Setting up the symmetry group for a 
 simple orthorhombic supercell.


 Subroutine GETGRP returns: Found  2 space group operations
 (whereof  2 operations were pure point group operations)
 out of a pool of  8 trial point group operations.


The static configuration has the point symmetry C_1h.


Analysis of symmetry for dynamics (positions and initial velocities):
=====================================================================
 Subroutine PRICEL returns:
 Original cell was already a primitive cell.
 

 Routine SETGRP: Setting up the symmetry group for a 
 simple orthorhombic supercell.


 Subroutine GETGRP returns: Found  2 space group operations
 (whereof  2 operations were pure point group operations)
 out of a pool of  8 trial point group operations.


The dynamic configuration has the point symmetry C_1h.


Analysis of structural, dynamic, and magnetic symmetry:
=====================================================================
 Subroutine PRICEL returns:
 Original cell was already a primitive cell.
 

 Routine SETGRP: Setting up the symmetry group for a 
 simple orthorhombic supercell.


 Subroutine GETGRP returns: Found  2 space group operations
 (whereof  2 operations were pure point group operations)
 out of a pool of  8 trial point group operations.


The overall configuration has the point symmetry C_1h.


 Subroutine INISYM returns: Found  2 space group operations
 (whereof  2 operations are pure point group operations),
 and found     1 'primitive' translations


----------------------------------------------------------------------------------------

                                     Primitive cell                                     

  volume of cell :     223.4684

  direct lattice vectors                    reciprocal lattice vectors
     3.630000114  0.000000000  0.000000000     0.275482085  0.000000000  0.000000000
     0.000000000  2.566797733  0.000000000     0.000000000  0.389590495  0.000000000
     0.000000000  0.000000000 23.983791351     0.000000000  0.000000000  0.041694826

  length of vectors
     3.630000114  2.566797733 23.983791351     0.275482085  0.389590495  0.041694826

  position of ions in fractional coordinates (direct lattice)
     0.000000000  0.000000000  0.000000000
     0.500000000  0.500000000  0.053511090
     0.000000000  0.000000000  0.104681476
     0.500000000  0.500000000  0.157929955
     0.000000000  0.000000000  0.210708991
     0.500000000  0.500000000  0.262890478
     0.000000000  0.000000000  0.317115916
     0.500000000  0.500000000  0.364675901
     0.500000000  0.000000000  0.426907920
     0.500000000  0.205509633  0.448902010

  ion indices of the primitive-cell ions
   primitive index   ion index
                 1           1
                 2           2
                 3           3
                 4           4
                 5           5
                 6           6
                 7           7
                 8           8
                 9           9
                10          10

----------------------------------------------------------------------------------------

 
 
 KPOINTS: Auto-mesh                               

Automatic generation of k-mesh.
 Grid dimensions read from file:
 generate k-points for:    3    3    1

 Generating k-lattice:

  Cartesian coordinates                     Fractional coordinates (reciprocal lattice)
     0.091827362  0.000000000  0.000000000     0.333333333  0.000000000  0.000000000
     0.000000000  0.129863498  0.000000000     0.000000000  0.333333333  0.000000000
     0.000000000  0.000000000  0.041694826     0.000000000  0.000000000  1.000000000

  Length of vectors
     0.091827362  0.129863498  0.041694826

  Shift w.r.t. Gamma in fractional coordinates (k-lattice)
     0.000000000  0.000000000  0.000000000

 
 Subroutine IBZKPT returns following result:
 ===========================================
 
 Found      4 irreducible k-points:
 
 Following reciprocal coordinates:
            Coordinates               Weight
  0.000000  0.000000  0.000000      1.000000
  0.333333  0.000000  0.000000      2.000000
  0.000000  0.333333  0.000000      2.000000
  0.333333  0.333333  0.000000      4.000000
 
 Following cartesian coordinates:
            Coordinates               Weight
  0.000000  0.000000  0.000000      1.000000
  0.091827  0.000000  0.000000      2.000000
  0.000000  0.129863  0.000000      2.000000
  0.091827  0.129863  0.000000      4.000000
 


--------------------------------------------------------------------------------------------------------




 Dimension of arrays:
   k-points           NKPTS =      4   k-points in BZ     NKDIM =      4   number of bands    NBANDS=     60
   number of dos      NEDOS =    301   number of ions     NIONS =     10
   non local maximal  LDIM  =      6   non local SUM 2l+1 LMDIM =     18
   total plane-waves  NPLWV =  30240
   max r-space proj   IRMAX =      1   max aug-charges    IRDMAX=   4119
   dimension x,y,z NGX =    18 NGY =   14 NGZ =  120
   dimension x,y,z NGXF=    36 NGYF=   28 NGZF=  240
   support grid    NGXF=    36 NGYF=   28 NGZF=  240
   ions per type =               8   2
   NGX,Y,Z   is equivalent  to a cutoff of   8.24,  9.07,  8.32 a.u.
   NGXF,Y,Z  is equivalent  to a cutoff of  16.49, 18.13, 16.64 a.u.

 SYSTEM =  unknown system                          
 POSCAR =  FCC Cu                                  

 Startparameter for this run:
   NWRITE =      2    write-flag & timer
   PREC   = normal    normal or accurate (medium, high low for compatibility)
   ISTART =      0    job   : 0-new  1-cont  2-samecut
   ICHARG =      2    charge: 1-file 2-atom 10-const
   ISPIN  =      2    spin polarized calculation?
   LNONCOLLINEAR =      F non collinear calculations
   LSORBIT =      F    spin-orbit coupling
   INIWAV =      1    electr: 0-lowe 1-rand  2-diag
   LASPH  =      F    aspherical Exc in radial PAW
 Electronic Relaxation 1
   ENCUT  =  400.0 eV  29.40 Ry    5.42 a.u.   5.92  4.19 39.11*2*pi/ulx,y,z
   ENINI  =  400.0     initial cutoff
   ENAUG  =  587.0 eV  augmentation charge cutoff
   NELM   =     60;   NELMIN=  2; NELMDL= -5     # of ELM steps 
   EDIFF  = 0.2E-03   stopping-criterion for ELM
   LREAL  =      F    real-space projection
   NLSPLINE    = F    spline interpolate recip. space projectors
   LCOMPAT=      F    compatible to vasp.4.4
   GGA_COMPAT  = T    GGA compatible to vasp.4.4-vasp.4.6
   LMAXPAW     = -100 max onsite density
   LMAXMIX     =    2 max onsite mixed and CHGCAR
   VOSKOWN=      0    Vosko Wilk Nusair interpolation
   ROPT   =    0.00000   0.00000
 Ionic relaxation
   EDIFFG = -.3E-01   stopping-criterion for IOM
   NSW    =    800    number of steps for IOM
   NBLOCK =      1;   KBLOCK =    800    inner block; outer block 
   IBRION =      2    ionic relax: 0-MD 1-quasi-New 2-CG
   NFREE  =      1    steps in history (QN), initial steepest desc. (CG)
   ISIF   =      2    stress and relaxation
   IWAVPR =     11    prediction:  0-non 1-charg 2-wave 3-comb
   ISYM   =      1    0-nonsym 1-usesym 2-fastsym
   LCORR  =      T    Harris-Foulkes like correction to forces

   POTIM  = 0.5000    time-step for ionic-motion
   TEIN   =    0.0    initial temperature
   TEBEG  =    0.0;   TEEND  =   0.0 temperature during run
   SMASS  =  -3.00    Nose mass-parameter (am)
   estimated Nose-frequenzy (Omega)   =  0.10E-29 period in steps = 0.13E+47 mass=  -0.301E-27a.u.
   SCALEE = 1.0000    scale energy and forces
   NPACO  =    256;   APACO  = 10.0  distance and # of slots for P.C.
   PSTRESS=    0.0 pullay stress

  Mass of Ions in am
   POMASS =  63.55  1.00
  Ionic Valenz
   ZVAL   =  11.00  1.00
  Atomic Wigner-Seitz radii
   RWIGS  =  -1.00 -1.00
  virtual crystal weights 
   VCA    =   1.00  1.00
   NELECT =      90.0000    total number of electrons
   NUPDOWN=      -1.0000    fix difference up-down

 DOS related values:
   EMIN   =  10.00;   EMAX   =-10.00  energy-range for DOS
   EFERMI =   0.00
   ISMEAR =     1;   SIGMA  =   0.20  broadening in eV -4-tet -1-fermi 0-gaus

 Electronic relaxation 2 (details)
   IALGO  =     38    algorithm
   LDIAG  =      T    sub-space diagonalisation (order eigenvalues)
   LSUBROT=      F    optimize rotation matrix (better conditioning)
   TURBO    =      0    0=normal 1=particle mesh
   IRESTART =      0    0=no restart 2=restart with 2 vectors
   NREBOOT  =      0    no. of reboots
   NMIN     =      0    reboot dimension
   EREF     =   0.00    reference energy to select bands
   IMIX   =      4    mixing-type and parameters
     AMIX     =   0.40;   BMIX     =  1.00
     AMIX_MAG =   1.60;   BMIX_MAG =  1.00
     AMIN     =   0.10
     WC   =   100.;   INIMIX=   1;  MIXPRE=   1;  MAXMIX= -45

 Intra band minimization:
   WEIMIN = 0.0010     energy-eigenvalue tresh-hold
   EBREAK =  0.83E-06  absolut break condition
   DEPER  =   0.30     relativ break condition  

   TIME   =   0.40     timestep for ELM

  volume/ion in A,a.u.               =      22.35       150.80
  Fermi-wavevector in a.u.,A,eV,Ry     =   1.208974  2.284630 19.886522  1.461618
  Thomas-Fermi vector in A             =   2.344566
 
 Write flags
   LWAVE        =      F    write WAVECAR
   LDOWNSAMPLE  =      F    k-point downsampling of WAVECAR
   LCHARG       =      F    write CHGCAR
   LVTOT        =      F    write LOCPOT, total local potential
   LVHAR        =      F    write LOCPOT, Hartree potential only
   LELF         =      F    write electronic localiz. function (ELF)
   LORBIT       =      0    0 simple, 1 ext, 2 COOP (PROOUT), +10 PAW based schemes


 Dipole corrections
   LMONO  =      F    monopole corrections only (constant potential shift)
   LDIPOL =      F    correct potential (dipole corrections)
   IDIPOL =      0    1-x, 2-y, 3-z, 4-all directions 
   EPSILON=  1.0000000 bulk dielectric constant

 Exchange correlation treatment:
   GGA     =    PE    GGA type
   LEXCH   =     8    internal setting for exchange type
   LIBXC   =     F    Libxc                    
   VOSKOWN =     0    Vosko Wilk Nusair interpolation
   LHFCALC =     F    Hartree Fock is set to
   LHFONE  =     F    Hartree Fock one center treatment
   AEXX    =    0.0000 exact exchange contribution

 Linear response parameters
   LEPSILON=     F    determine dielectric tensor
   LRPA    =     F    only Hartree local field effects (RPA)
   LNABLA  =     F    use nabla operator in PAW spheres
   LVEL    =     F    velocity operator in full k-point grid
   CSHIFT  =0.1000    complex shift for real part using Kramers Kronig
   OMEGAMAX=  -1.0    maximum frequency
   DEG_THRESHOLD= 0.2000000E-02 threshold for treating states as degnerate
   RTIME   =   -0.100 relaxation time in fs
  (WPLASMAI=    0.000 imaginary part of plasma frequency in eV, 0.658/RTIME)
   DFIELD  = 0.0000000 0.0000000 0.0000000 field for delta impulse in time
 
  Optional k-point grid parameters
   LKPOINTS_OPT  =     F    use optional k-point grid
   KPOINTS_OPT_MODE=     1    mode for optional k-point grid
 
 Orbital magnetization related:
   ORBITALMAG=     F  switch on orbital magnetization
   LCHIMAG   =     F  perturbation theory with respect to B field
   DQ        =  0.001000  dq finite difference perturbation B field
   LLRAUG    =     F  two centre corrections for induced B field



--------------------------------------------------------------------------------------------------------


 conjugate gradient relaxation of ions
 charge density and potential will be updated during run
 spin polarized calculation
 Variant of blocked Davidson
 Davidson routine will perform the subspace rotation
 perform sub-space diagonalisation
    after iterative eigenvector-optimisation
 modified Broyden-mixing scheme, WC =      100.0
 initial mixing is a Kerker type mixing with AMIX =  0.4000 and BMIX =      1.0000
 Hartree-type preconditioning will be used
 using additional bands           15
 reciprocal scheme for non local part
 use partial core corrections
 calculate Harris-corrections to forces 
   (improved forces if not selfconsistent)
 use gradient corrections 
 use of overlap-Matrix (Vanderbilt PP)
 Methfessel and Paxton  Order N= 1 SIGMA  =   0.20


--------------------------------------------------------------------------------------------------------


  energy-cutoff  :      400.00
  volume of cell :      223.47
      direct lattice vectors                 reciprocal lattice vectors
     3.630000114  0.000000000  0.000000000     0.275482085  0.000000000  0.000000000
     0.000000000  2.566797733  0.000000000     0.000000000  0.389590495  0.000000000
     0.000000000  0.000000000 23.983791351     0.000000000  0.000000000  0.041694826

  length of vectors
     3.630000114  2.566797733 23.983791351     0.275482085  0.389590495  0.041694826


 
 k-points in units of 2pi/SCALE and weight: Auto-mesh                               
   0.00000000  0.00000000  0.00000000       0.111
   0.09182736  0.00000000  0.00000000       0.222
   0.00000000  0.12986350  0.00000000       0.222
   0.09182736  0.12986350  0.00000000       0.444
 
 k-points in reciprocal lattice and weights: Auto-mesh                               
   0.00000000  0.00000000  0.00000000       0.111
   0.33333333  0.00000000  0.00000000       0.222
   0.00000000  0.33333333  0.00000000       0.222
   0.33333333  0.33333333  0.00000000       0.444
 
 position of ions in fractional coordinates (direct lattice) 
   0.00000000  0.00000000  0.00000000
   0.50000000  0.50000000  0.05351109
   0.00000000  0.00000000  0.10468148
   0.50000000  0.50000000  0.15792996
   0.00000000  0.00000000  0.21070899
   0.50000000  0.50000000  0.26289048
   0.00000000  0.00000000  0.31711592
   0.50000000  0.50000000  0.36467590
   0.50000000  0.00000000  0.42690792
   0.50000000  0.20550963  0.44890201
 
 position of ions in cartesian coordinates  (Angst):
   0.00000000  0.00000000  0.00000000
   1.81500006  1.28339887  1.28339883
   0.00000000  0.00000000  2.51065868
   1.81500006  1.28339887  3.78775910
   0.00000000  0.00000000  5.05360047
   1.81500006  1.28339887  6.30511038
   0.00000000  0.00000000  7.60564196
   1.81500006  1.28339887  8.74631073
   1.81500006  0.00000000 10.23887049
   1.81500006  0.52750166 10.76637215
 


--------------------------------------------------------------------------------------------------------


 k-point   1 :   0.0000 0.0000 0.0000  plane waves:    4037
 k-point   2 :   0.3333 0.0000 0.0000  plane waves:    4064
 k-point   3 :   0.0000 0.3333 0.0000  plane waves:    4032
 k-point   4 :   0.3333 0.3333 0.0000  plane waves:    4072

 maximum and minimum number of plane-waves per node :       827      778

 maximum number of plane-waves:      4072
 maximum index in each direction: 
   IXMAX=    5   IYMAX=    4   IZMAX=   39
   IXMIN=   -6   IYMIN=   -4   IZMIN=  -39


 parallel 3D FFT for wavefunctions:
    minimum data exchange during FFTs selected (reduces bandwidth)
 parallel 3D FFT for charge:
    minimum data exchange during FFTs selected (reduces bandwidth)


 total amount of memory used by VASP MPI-rank0    35069. kBytes
=======================================================================

   base      :      30000. kBytes
   nonl-proj :       1086. kBytes
   fftplans  :        642. kBytes
   grid      :       1621. kBytes
   one-center:         62. kBytes
   wavefun   :       1658. kBytes
 
     INWAV:  cpu time      0.0000: real time      0.0005
 Broyden mixing: mesh for mixing (old mesh)
   NGX = 11   NGY =  9   NGZ = 79
  (NGX  = 36   NGY  = 28   NGZ  =240)
  gives a total of   7821 points

 initial charge density was supplied:
 charge density of overlapping atoms calculated
 number of electron      90.0000000 magnetization      10.0000000
 keeping initial charge density in first step


--------------------------------------------------------------------------------------------------------


 Maximum index for augmentation-charges          309 (set IRDMAX)


--------------------------------------------------------------------------------------------------------


 First call to EWALD:  gamma=   0.292
 Maximum number of real-space cells 4x 6x 1
 Maximum number of reciprocal cells 2x 1x 9

    FEWALD:  cpu time      0.0019: real time      0.0019


--------------------------------------- Iteration      1(   1)  ---------------------------------------


    POTLOK:  cpu time      0.0192: real time      0.0195
    SETDIJ:  cpu time      0.0065: real time      0.0066
     EDDAV:  cpu time      0.3157: real time      0.3186
       DOS:  cpu time      0.0012: real time      0.0012
    --------------------------------------------
      LOOP:  cpu time      0.3427: real time      0.3459

 eigenvalue-minimisations  :   960
 total energy-change (2. order) : 0.7729468E+03  (-0.3323007E+04)
 number of electron      90.0000000 magnetization      10.0000000
 augmentation part       90.0000000 magnetization      10.0000000

 Free energy of the ion-electron system (eV)
  ---------------------------------------------------
  alpha Z        PSCENC =       216.17040255
  Ewald energy   TEWEN  =     42301.25362179
  -Hartree energ DENC   =    -53122.29932780
  -exchange      EXHF   =         0.00000000
  -V(xc)+E(xc)   XCENC  =       371.50438816
  PAW double counting   =      9828.36862813   -10674.97285505
  entropy T*S    EENTRO =        -0.01174278
  eigenvalues    EBANDS =       700.31534710
  atomic energy  EATOM  =     11152.61838693
  Solvation  Ediel_sol  =         0.00000000
  ---------------------------------------------------
  free energy    TOTEN  =       772.94684902 eV

  energy without entropy =      772.95859180  energy(sigma->0) =      772.95076328


--------------------------------------------------------------------------------------------------------




--------------------------------------- Iteration      1(   2)  ---------------------------------------


     EDDAV:  cpu time      0.3044: real time      0.3077
       DOS:  cpu time      0.0009: real time      0.0009
    --------------------------------------------
      LOOP:  cpu time      0.3052: real time      0.3086

 eigenvalue-minimisations  :   960
 total energy-change (2. order) :-0.7144119E+03  (-0.6869007E+03)
 number of electron      90.0000000 magnetization      10.0000000
 augmentation part       90.0000000 magnetization      10.0000000

 Free energy of the ion-electron system (eV)
  ---------------------------------------------------
  alpha Z        PSCENC =       216.17040255
  Ewald energy   TEWEN  =     42301.25362179
  -Hartree energ DENC   =    -53122.29932780
  -exchange      EXHF   =         0.00000000
  -V(xc)+E(xc)   XCENC  =       371.50438816
  PAW double counting   =      9828.36862813   -10674.97285505
  entropy T*S    EENTRO =        -0.00134510
  eigenvalues    EBANDS =       -14.10694234
  atomic energy  EATOM  =     11152.61838693
  Solvation  Ediel_sol  =         0.00000000
  ---------------------------------------------------
  free energy    TOTEN  =        58.53495726 eV

  energy without entropy =       58.53630236  energy(sigma->0) =       58.53540563


--------------------------------------------------------------------------------------------------------




--------------------------------------- Iteration      1(   3)  ---------------------------------------


     EDDAV:  cpu time      0.3149: real time      0.3180
       DOS:  cpu time      0.0009: real time      0.0009
    --------------------------------------------
      LOOP:  cpu time      0.3159: real time      0.3189

 eigenvalue-minimisations  :  1016
 total energy-change (2. order) :-0.9015449E+02  (-0.8381292E+02)
 number of electron      90.0000000 magnetization      10.0000000
 augmentation part       90.0000000 magnetization      10.0000000

 Free energy of the ion-electron system (eV)
  ---------------------------------------------------
  alpha Z        PSCENC =       216.17040255
  Ewald energy   TEWEN  =     42301.25362179
  -Hartree energ DENC   =    -53122.29932780
  -exchange      EXHF   =         0.00000000
  -V(xc)+E(xc)   XCENC  =       371.50438816
  PAW double counting   =      9828.36862813   -10674.97285505
  entropy T*S    EENTRO =         0.00832064
  eigenvalues    EBANDS =      -104.27109929
  atomic energy  EATOM  =     11152.61838693
  Solvation  Ediel_sol  =         0.00000000
  ---------------------------------------------------
  free energy    TOTEN  =       -31.61953395 eV

  energy without entropy =      -31.62785459  energy(sigma->0) =      -31.62230750


--------------------------------------------------------------------------------------------------------




--------------------------------------- Iteration      1(   4)  ---------------------------------------


     EDDAV:  cpu time      0.3510: real time      0.3547
       DOS:  cpu time      0.0009: real time      0.0009
    --------------------------------------------
      LOOP:  cpu time      0.3519: real time      0.3557

 eigenvalue-minimisations  :  1112
 total energy-change (2. order) :-0.3798867E+01  (-0.3768900E+01)
 number of electron      90.0000000 magnetization      10.0000000
 augmentation part       90.0000000 magnetization      10.0000000

 Free energy of the ion-electron system (eV)
  ---------------------------------------------------
  alpha Z        PSCENC =       216.17040255
  Ewald energy   TEWEN  =     42301.25362179
  -Hartree energ DENC   =    -53122.29932780
  -exchange      EXHF   =         0.00000000
  -V(xc)+E(xc)   XCENC  =       371.50438816
  PAW double counting   =      9828.36862813   -10674.97285505
  entropy T*S    EENTRO =         0.00795934
  eigenvalues    EBANDS =      -108.06960499
  atomic energy  EATOM  =     11152.61838693
  Solvation  Ediel_sol  =         0.00000000
  ---------------------------------------------------
  free energy    TOTEN  =       -35.41840095 eV

  energy without entropy =      -35.42636029  energy(sigma->0) =      -35.42105406


--------------------------------------------------------------------------------------------------------




--------------------------------------- Iteration      1(   5)  ---------------------------------------


     EDDAV:  cpu time      0.3499: real time      0.3534
       DOS:  cpu time      0.0009: real time      0.0009
    CHARGE:  cpu time      0.0558: real time      0.0561
    MIXING:  cpu time      0.0006: real time      0.0006
    --------------------------------------------
      LOOP:  cpu time      0.4072: real time      0.4109

 eigenvalue-minimisations  :  1164
 total energy-change (2. order) :-0.8788985E-01  (-0.8782897E-01)
 number of electron      90.0000817 magnetization       9.1026355
 augmentation part       52.2305745 magnetization       8.8072459

 Broyden mixing:
  rms(total) = 0.27212E+01    rms(broyden)= 0.27210E+01
  rms(prec ) = 0.28035E+01
  weight for this iteration     100.00

 Free energy of the ion-electron system (eV)
  ---------------------------------------------------
  alpha Z        PSCENC =       216.17040255
  Ewald energy   TEWEN  =     42301.25362179
  -Hartree energ DENC   =    -53122.29932780
  -exchange      EXHF   =         0.00000000
  -V(xc)+E(xc)   XCENC  =       371.50438816
  PAW double counting   =      9828.36862813   -10674.97285505
  entropy T*S    EENTRO =         0.00791549
  eigenvalues    EBANDS =      -108.15745099
  atomic energy  EATOM  =     11152.61838693
  Solvation  Ediel_sol  =         0.00000000
  ---------------------------------------------------
  free energy    TOTEN  =       -35.50629080 eV

  energy without entropy =      -35.51420629  energy(sigma->0) =      -35.50892929


--------------------------------------------------------------------------------------------------------




--------------------------------------- Iteration      1(   6)  ---------------------------------------


    POTLOK:  cpu time      0.0175: real time      0.0178
    SETDIJ:  cpu time      0.0059: real time      0.0059
     EDDAV:  cpu time      0.3352: real time      0.3384
       DOS:  cpu time      0.0010: real time      0.0010
    CHARGE:  cpu time      0.0521: real time      0.0524
    MIXING:  cpu time      0.0007: real time      0.0007
    --------------------------------------------
      LOOP:  cpu time      0.4124: real time      0.4162

 eigenvalue-minimisations  :  1108
 total energy-change (2. order) : 0.7127331E+01  (-0.9298268E+01)
 number of electron      90.0000909 magnetization       8.5388322
 augmentation part       58.5594776 magnetization       6.4274787

 Broyden mixing:
  rms(total) = 0.13701E+01    rms(broyden)= 0.13698E+01
  rms(prec ) = 0.14493E+01
  weight for this iteration     100.00

 eigenvalues of (default mixing * dielectric matrix)
  average eigenvalue GAMMA=   0.8017
  0.8017

 Free energy of the ion-electron system (eV)
  ---------------------------------------------------
  alpha Z        PSCENC =       216.17040255
  Ewald energy   TEWEN  =     42301.25362179
  -Hartree energ DENC   =    -52927.25203321
  -exchange      EXHF   =         0.00000000
  -V(xc)+E(xc)   XCENC  =       365.74459516
  PAW double counting   =      9980.54146246   -10785.34656841
  entropy T*S    EENTRO =         0.00139551
  eigenvalues    EBANDS =      -332.11022237
  atomic energy  EATOM  =     11152.61838693
  Solvation  Ediel_sol  =         0.00000000
  ---------------------------------------------------
  free energy    TOTEN  =       -28.37895959 eV

  energy without entropy =      -28.38035510  energy(sigma->0) =      -28.37942476


--------------------------------------------------------------------------------------------------------




--------------------------------------- Iteration      1(   7)  ---------------------------------------


    POTLOK:  cpu time      0.0163: real time      0.0166
    SETDIJ:  cpu time      0.0055: real time      0.0056
     EDDAV:  cpu time      0.3460: real time      0.3496
       DOS:  cpu time      0.0009: real time      0.0009
    CHARGE:  cpu time      0.0505: real time      0.0508
    MIXING:  cpu time      0.0006: real time      0.0006
    --------------------------------------------
      LOOP:  cpu time      0.4199: real time      0.4241

 eigenvalue-minimisations  :  1152
 total energy-change (2. order) : 0.2287374E+01  (-0.2523532E+01)
 number of electron      90.0000885 magnetization       8.0770246
 augmentation part       56.5002577 magnetization       5.9325816

 Broyden mixing:
  rms(total) = 0.81858E+00    rms(broyden)= 0.81844E+00
  rms(prec ) = 0.89379E+00
  weight for this iteration     100.00

 eigenvalues of (default mixing * dielectric matrix)
  average eigenvalue GAMMA=   0.7778
  0.9451  0.6105

 Free energy of the ion-electron system (eV)
  ---------------------------------------------------
  alpha Z        PSCENC =       216.17040255
  Ewald energy   TEWEN  =     42301.25362179
  -Hartree energ DENC   =    -53047.66356173
  -exchange      EXHF   =         0.00000000
  -V(xc)+E(xc)   XCENC  =       369.23401632
  PAW double counting   =     10199.78517094   -11043.47751176
  entropy T*S    EENTRO =        -0.00414810
  eigenvalues    EBANDS =      -174.00796249
  atomic energy  EATOM  =     11152.61838693
  Solvation  Ediel_sol  =         0.00000000
  ---------------------------------------------------
  free energy    TOTEN  =       -26.09158556 eV

  energy without entropy =      -26.08743746  energy(sigma->0) =      -26.09020286


--------------------------------------------------------------------------------------------------------




--------------------------------------- Iteration      1(   8)  ---------------------------------------


    POTLOK:  cpu time      0.0163: real time      0.0166
    SETDIJ:  cpu time      0.0057: real time      0.0058
     EDDAV:  cpu time      0.3799: real time      0.3836
       DOS:  cpu time      0.0009: real time      0.0009
    CHARGE:  cpu time      0.0501: real time      0.0503
    MIXING:  cpu time      0.0008: real time      0.0008
    --------------------------------------------
      LOOP:  cpu time      0.4537: real time      0.4580

 eigenvalue-minimisations  :  1304
 total energy-change (2. order) : 0.3561450E+00  (-0.1028058E+01)
 number of electron      90.0000876 magnetization       7.3432739
 augmentation part       56.1316180 magnetization       5.1358099

 Broyden mixing:
  rms(total) = 0.73225E+00    rms(broyden)= 0.73214E+00
  rms(prec ) = 0.81982E+00
  weight for this iteration     100.00

 eigenvalues of (default mixing * dielectric matrix)
  average eigenvalue GAMMA=   0.7198
  1.1251  0.6674  0.3668

 Free energy of the ion-electron system (eV)
  ---------------------------------------------------
  alpha Z        PSCENC =       216.17040255
  Ewald energy   TEWEN  =     42301.25362179
  -Hartree energ DENC   =    -53049.86722843
  -exchange      EXHF   =         0.00000000
  -V(xc)+E(xc)   XCENC  =       369.55924507
  PAW double counting   =     10294.97735137   -11147.05194926
  entropy T*S    EENTRO =        -0.00708207
  eigenvalues    EBANDS =      -163.38818849
  atomic energy  EATOM  =     11152.61838693
  Solvation  Ediel_sol  =         0.00000000
  ---------------------------------------------------
  free energy    TOTEN  =       -25.73544056 eV

  energy without entropy =      -25.72835849  energy(sigma->0) =      -25.73307987


--------------------------------------------------------------------------------------------------------




--------------------------------------- Iteration      1(   9)  ---------------------------------------


    POTLOK:  cpu time      0.0162: real time      0.0165
    SETDIJ:  cpu time      0.0055: real time      0.0056
     EDDAV:  cpu time      0.4480: real time      0.4525
       DOS:  cpu time      0.0009: real time      0.0009
    CHARGE:  cpu time      0.0518: real time      0.0521
    MIXING:  cpu time      0.0008: real time      0.0008
    --------------------------------------------
      LOOP:  cpu time      0.5232: real time      0.5283

 eigenvalue-minimisations  :  1580
 total energy-change (2. order) : 0.8856871E-01  (-0.4818235E+00)
 number of electron      90.0000875 magnetization       6.4214341
 augmentation part       56.0696099 magnetization       4.3383955

 Broyden mixing:
  rms(total) = 0.60556E+00    rms(broyden)= 0.60550E+00
  rms(prec ) = 0.62895E+00
  weight for this iteration     100.00

 eigenvalues of (default mixing * dielectric matrix)
  average eigenvalue GAMMA=   0.7735
  1.3030  0.7435  0.7435  0.3041

 Free energy of the ion-electron system (eV)
  ---------------------------------------------------
  alpha Z        PSCENC =       216.17040255
  Ewald energy   TEWEN  =     42301.25362179
  -Hartree energ DENC   =    -53061.59322386
  -exchange      EXHF   =         0.00000000
  -V(xc)+E(xc)   XCENC  =       369.16418190
  PAW double counting   =     10422.60219904   -11282.44927204
  entropy T*S    EENTRO =         0.00071567
  eigenvalues    EBANDS =      -143.41388382
  atomic energy  EATOM  =     11152.61838693
  Solvation  Ediel_sol  =         0.00000000
  ---------------------------------------------------
  free energy    TOTEN  =       -25.64687185 eV

  energy without entropy =      -25.64758752  energy(sigma->0) =      -25.64711040


--------------------------------------------------------------------------------------------------------




--------------------------------------- Iteration      1(  10)  ---------------------------------------


    POTLOK:  cpu time      0.0162: real time      0.0164
    SETDIJ:  cpu time      0.0056: real time      0.0056
     EDDAV:  cpu time      0.4004: real time      0.4040
       DOS:  cpu time      0.0009: real time      0.0009
    CHARGE:  cpu time      0.0534: real time      0.0537
    MIXING:  cpu time      0.0010: real time      0.0010
    --------------------------------------------
      LOOP:  cpu time      0.4773: real time      0.4816

 eigenvalue-minimisations  :  1332
 total energy-change (2. order) :-0.6690938E+00  (-0.1719939E+00)
 number of electron      90.0000877 magnetization       5.0035366
 augmentation part       56.1555355 magnetization       3.0220014

 Broyden mixing:
  rms(total) = 0.50567E+00    rms(broyden)= 0.50564E+00
  rms(prec ) = 0.50818E+00
  weight for this iteration     100.00

 eigenvalues of (default mixing * dielectric matrix)
  average eigenvalue GAMMA=   0.9465
  1.9618  1.2215  0.7135  0.5414  0.2942

 Free energy of the ion-electron system (eV)
  ---------------------------------------------------
  alpha Z        PSCENC =       216.17040255
  Ewald energy   TEWEN  =     42301.25362179
  -Hartree energ DENC   =    -53073.47045229
  -exchange      EXHF   =         0.00000000
  -V(xc)+E(xc)   XCENC  =       368.18027683
  PAW double counting   =     10530.45907094   -11394.06346009
  entropy T*S    EENTRO =         0.00158708
  eigenvalues    EBANDS =      -127.46539934
  atomic energy  EATOM  =     11152.61838693
  Solvation  Ediel_sol  =         0.00000000
  ---------------------------------------------------
  free energy    TOTEN  =       -26.31596561 eV

  energy without entropy =      -26.31755269  energy(sigma->0) =      -26.31649464


--------------------------------------------------------------------------------------------------------




--------------------------------------- Iteration      1(  11)  ---------------------------------------


    POTLOK:  cpu time      0.0171: real time      0.0174
    SETDIJ:  cpu time      0.0059: real time      0.0059
     EDDAV:  cpu time      0.3706: real time      0.3744
       DOS:  cpu time      0.0009: real time      0.0009
    CHARGE:  cpu time      0.0505: real time      0.0508
    MIXING:  cpu time      0.0008: real time      0.0009
    --------------------------------------------
      LOOP:  cpu time      0.4459: real time      0.4502

 eigenvalue-minimisations  :  1264
 total energy-change (2. order) :-0.1702155E+01  (-0.1198349E+00)
 number of electron      90.0000879 magnetization       3.7966095
 augmentation part       56.3733148 magnetization       2.0781174

 Broyden mixing:
  rms(total) = 0.40652E+00    rms(broyden)= 0.40651E+00
  rms(prec ) = 0.41148E+00
  weight for this iteration     100.00

 eigenvalues of (default mixing * dielectric matrix)
  average eigenvalue GAMMA=   1.0774
  3.0005  1.2253  0.7288  0.7288  0.4850  0.2963

 Free energy of the ion-electron system (eV)
  ---------------------------------------------------
  alpha Z        PSCENC =       216.17040255
  Ewald energy   TEWEN  =     42301.25362179
  -Hartree energ DENC   =    -53082.13373498
  -exchange      EXHF   =         0.00000000
  -V(xc)+E(xc)   XCENC  =       366.69751081
  PAW double counting   =     10618.16852893   -11482.91996824
  entropy T*S    EENTRO =        -0.00743893
  eigenvalues    EBANDS =      -117.86542914
  atomic energy  EATOM  =     11152.61838693
  Solvation  Ediel_sol  =         0.00000000
  ---------------------------------------------------
  free energy    TOTEN  =       -28.01812029 eV

  energy without entropy =      -28.01068136  energy(sigma->0) =      -28.01564065


--------------------------------------------------------------------------------------------------------




--------------------------------------- Iteration      1(  12)  ---------------------------------------


    POTLOK:  cpu time      0.0161: real time      0.0163
    SETDIJ:  cpu time      0.0056: real time      0.0057
     EDDAV:  cpu time      0.3530: real time      0.3562
       DOS:  cpu time      0.0009: real time      0.0009
    CHARGE:  cpu time      0.0518: real time      0.0523
    MIXING:  cpu time      0.0010: real time      0.0010
    --------------------------------------------
      LOOP:  cpu time      0.4284: real time      0.4324

 eigenvalue-minimisations  :  1192
 total energy-change (2. order) :-0.1438358E+01  (-0.8072772E-01)
 number of electron      90.0000877 magnetization       2.0242187
 augmentation part       56.2768624 magnetization       0.5709534

 Broyden mixing:
  rms(total) = 0.30936E+00    rms(broyden)= 0.30934E+00
  rms(prec ) = 0.31541E+00
  weight for this iteration     100.00

 eigenvalues of (default mixing * dielectric matrix)
  average eigenvalue GAMMA=   1.4580
  5.3260  1.7313  0.9247  0.2981  0.7746  0.6750  0.4766

 Free energy of the ion-electron system (eV)
  ---------------------------------------------------
  alpha Z        PSCENC =       216.17040255
  Ewald energy   TEWEN  =     42301.25362179
  -Hartree energ DENC   =    -53096.45517571
  -exchange      EXHF   =         0.00000000
  -V(xc)+E(xc)   XCENC  =       365.96761821
  PAW double counting   =     10643.54366626   -11510.26464352
  entropy T*S    EENTRO =        -0.01677379
  eigenvalues    EBANDS =      -102.27358068
  atomic energy  EATOM  =     11152.61838693
  Solvation  Ediel_sol  =         0.00000000
  ---------------------------------------------------
  free energy    TOTEN  =       -29.45647797 eV

  energy without entropy =      -29.43970418  energy(sigma->0) =      -29.45088671


--------------------------------------------------------------------------------------------------------




--------------------------------------- Iteration      1(  13)  ---------------------------------------


    POTLOK:  cpu time      0.0165: real time      0.0168
    SETDIJ:  cpu time      0.0057: real time      0.0057
     EDDAV:  cpu time      0.3952: real time      0.3992
       DOS:  cpu time      0.0009: real time      0.0009
    CHARGE:  cpu time      0.0497: real time      0.0500
    MIXING:  cpu time      0.0010: real time      0.0010
    --------------------------------------------
      LOOP:  cpu time      0.4690: real time      0.4736

 eigenvalue-minimisations  :  1364
 total energy-change (2. order) :-0.2670952E+01  (-0.2040753E+00)
 number of electron      90.0000874 magnetization       1.0346720
 augmentation part       56.1105800 magnetization       0.0063924

 Broyden mixing:
  rms(total) = 0.19628E+00    rms(broyden)= 0.19623E+00
  rms(prec ) = 0.23168E+00
  weight for this iteration     100.00

 eigenvalues of (default mixing * dielectric matrix)
  average eigenvalue GAMMA=   1.7353
  8.0938  2.0481  0.9867  0.7379  0.7379  0.2975  0.5350  0.4456

 Free energy of the ion-electron system (eV)
  ---------------------------------------------------
  alpha Z        PSCENC =       216.17040255
  Ewald energy   TEWEN  =     42301.25362179
  -Hartree energ DENC   =    -53097.74298567
  -exchange      EXHF   =         0.00000000
  -V(xc)+E(xc)   XCENC  =       364.52216536
  PAW double counting   =     10596.06590304   -11461.75357859
  entropy T*S    EENTRO =        -0.00804819
  eigenvalues    EBANDS =      -103.25329676
  atomic energy  EATOM  =     11152.61838693
  Solvation  Ediel_sol  =         0.00000000
  ---------------------------------------------------
  free energy    TOTEN  =       -32.12742955 eV

  energy without entropy =      -32.11938136  energy(sigma->0) =      -32.12474682


--------------------------------------------------------------------------------------------------------




--------------------------------------- Iteration      1(  14)  ---------------------------------------


    POTLOK:  cpu time      0.0160: real time      0.0163
    SETDIJ:  cpu time      0.0056: real time      0.0056
     EDDAV:  cpu time      0.3486: real time      0.3518
       DOS:  cpu time      0.0009: real time      0.0009
    CHARGE:  cpu time      0.0523: real time      0.0526
    MIXING:  cpu time      0.0011: real time      0.0011
    --------------------------------------------
      LOOP:  cpu time      0.4244: real time      0.4283

 eigenvalue-minimisations  :  1164
 total energy-change (2. order) :-0.1524532E+01  (-0.1809272E+00)
 number of electron      90.0000873 magnetization       0.6528389
 augmentation part       56.1109982 magnetization       0.0902544

 Broyden mixing:
  rms(total) = 0.10897E+00    rms(broyden)= 0.10890E+00
  rms(prec ) = 0.11542E+00
  weight for this iteration     100.00

 eigenvalues of (default mixing * dielectric matrix)
  average eigenvalue GAMMA=   1.7526
  9.1520  2.1334  1.0347  0.7670  0.7670  0.7229  0.2972  0.4698  0.4294

 Free energy of the ion-electron system (eV)
  ---------------------------------------------------
  alpha Z        PSCENC =       216.17040255
  Ewald energy   TEWEN  =     42301.25362179
  -Hartree energ DENC   =    -53094.00556569
  -exchange      EXHF   =         0.00000000
  -V(xc)+E(xc)   XCENC  =       363.49351933
  PAW double counting   =     10552.02012970   -11415.24427858
  entropy T*S    EENTRO =        -0.01310796
  eigenvalues    EBANDS =      -109.94506926
  atomic energy  EATOM  =     11152.61838693
  Solvation  Ediel_sol  =         0.00000000
  ---------------------------------------------------
  free energy    TOTEN  =       -33.65196120 eV

  energy without entropy =      -33.63885324  energy(sigma->0) =      -33.64759188


--------------------------------------------------------------------------------------------------------




--------------------------------------- Iteration      1(  15)  ---------------------------------------


    POTLOK:  cpu time      0.0160: real time      0.0163
    SETDIJ:  cpu time      0.0056: real time      0.0056
     EDDAV:  cpu time      0.3489: real time      0.3521
       DOS:  cpu time      0.0009: real time      0.0009
    CHARGE:  cpu time      0.0517: real time      0.0520
    MIXING:  cpu time      0.0011: real time      0.0015
    --------------------------------------------
      LOOP:  cpu time      0.4242: real time      0.4284

 eigenvalue-minimisations  :  1172
 total energy-change (2. order) :-0.6199194E+00  (-0.7722410E-01)
 number of electron      90.0000873 magnetization       0.4329002
 augmentation part       56.1667598 magnetization       0.1298298

 Broyden mixing:
  rms(total) = 0.77407E-01    rms(broyden)= 0.77367E-01
  rms(prec ) = 0.83111E-01
  weight for this iteration     100.00

 eigenvalues of (default mixing * dielectric matrix)
  average eigenvalue GAMMA=   1.7491
  9.8661  2.2618  0.8633  0.8633  0.9055  0.9055  0.2974  0.6119  0.4583  0.4583

 Free energy of the ion-electron system (eV)
  ---------------------------------------------------
  alpha Z        PSCENC =       216.17040255
  Ewald energy   TEWEN  =     42301.25362179
  -Hartree energ DENC   =    -53087.58109282
  -exchange      EXHF   =         0.00000000
  -V(xc)+E(xc)   XCENC  =       363.04574085
  PAW double counting   =     10536.44538423   -11398.47892608
  entropy T*S    EENTRO =        -0.00711271
  eigenvalues    EBANDS =      -117.73828533
  atomic energy  EATOM  =     11152.61838693
  Solvation  Ediel_sol  =         0.00000000
  ---------------------------------------------------
  free energy    TOTEN  =       -34.27188060 eV

  energy without entropy =      -34.26476790  energy(sigma->0) =      -34.26950970


--------------------------------------------------------------------------------------------------------




--------------------------------------- Iteration      1(  16)  ---------------------------------------


    POTLOK:  cpu time      0.0160: real time      0.0162
    SETDIJ:  cpu time      0.0055: real time      0.0056
     EDDAV:  cpu time      0.3288: real time      0.3319
       DOS:  cpu time      0.0009: real time      0.0009
    CHARGE:  cpu time      0.0602: real time      0.0606
    MIXING:  cpu time      0.0015: real time      0.0015
    --------------------------------------------
      LOOP:  cpu time      0.4129: real time      0.4167

 eigenvalue-minimisations  :  1088
 total energy-change (2. order) :-0.2917575E+00  (-0.2290368E-01)
 number of electron      90.0000873 magnetization       0.2886062
 augmentation part       56.2070218 magnetization       0.1262566

 Broyden mixing:
  rms(total) = 0.55134E-01    rms(broyden)= 0.55091E-01
  rms(prec ) = 0.58964E-01
  weight for this iteration     100.00

 eigenvalues of (default mixing * dielectric matrix)
  average eigenvalue GAMMA=   1.7656
 10.5749  2.2817  1.1220  1.0569  1.0569  0.7822  0.7822  0.2974  0.5757  0.4626
  0.4288

 Free energy of the ion-electron system (eV)
  ---------------------------------------------------
  alpha Z        PSCENC =       216.17040255
  Ewald energy   TEWEN  =     42301.25362179
  -Hartree energ DENC   =    -53080.62817337
  -exchange      EXHF   =         0.00000000
  -V(xc)+E(xc)   XCENC  =       362.81138917
  PAW double counting   =     10523.38640140   -11384.70551685
  entropy T*S    EENTRO =         0.00127664
  eigenvalues    EBANDS =      -125.47142640
  atomic energy  EATOM  =     11152.61838693
  Solvation  Ediel_sol  =         0.00000000
  ---------------------------------------------------
  free energy    TOTEN  =       -34.56363814 eV

  energy without entropy =      -34.56491478  energy(sigma->0) =      -34.56406368


--------------------------------------------------------------------------------------------------------




--------------------------------------- Iteration      1(  17)  ---------------------------------------


    POTLOK:  cpu time      0.0173: real time      0.0176
    SETDIJ:  cpu time      0.0059: real time      0.0060
     EDDAV:  cpu time      0.3558: real time      0.3591
       DOS:  cpu time      0.0009: real time      0.0009
    CHARGE:  cpu time      0.0501: real time      0.0504
    MIXING:  cpu time      0.0013: real time      0.0013
    --------------------------------------------
      LOOP:  cpu time      0.4313: real time      0.4353

 eigenvalue-minimisations  :  1192
 total energy-change (2. order) :-0.1851555E+00  (-0.1043748E-01)
 number of electron      90.0000873 magnetization       0.2144858
 augmentation part       56.2034159 magnetization       0.1158715

 Broyden mixing:
  rms(total) = 0.40568E-01    rms(broyden)= 0.40547E-01
  rms(prec ) = 0.43817E-01
  weight for this iteration     100.00

 eigenvalues of (default mixing * dielectric matrix)
  average eigenvalue GAMMA=   1.7655
 11.0062  2.0917  2.0917  1.0553  1.0553  0.7725  0.7725  0.7146  0.2974  0.4751
  0.4472  0.4066

 Free energy of the ion-electron system (eV)
  ---------------------------------------------------
  alpha Z        PSCENC =       216.17040255
  Ewald energy   TEWEN  =     42301.25362179
  -Hartree energ DENC   =    -53074.97227877
  -exchange      EXHF   =         0.00000000
  -V(xc)+E(xc)   XCENC  =       362.68124907
  PAW double counting   =     10516.97246189   -11378.40322007
  entropy T*S    EENTRO =         0.00573842
  eigenvalues    EBANDS =      -131.07515539
  atomic energy  EATOM  =     11152.61838693
  Solvation  Ediel_sol  =         0.00000000
  ---------------------------------------------------
  free energy    TOTEN  =       -34.74879359 eV

  energy without entropy =      -34.75453200  energy(sigma->0) =      -34.75070639


--------------------------------------------------------------------------------------------------------




--------------------------------------- Iteration      1(  18)  ---------------------------------------


    POTLOK:  cpu time      0.0159: real time      0.0162
    SETDIJ:  cpu time      0.0056: real time      0.0056
     EDDAV:  cpu time      0.3465: real time      0.3500
       DOS:  cpu time      0.0009: real time      0.0010
    CHARGE:  cpu time      0.0516: real time      0.0519
    MIXING:  cpu time      0.0013: real time      0.0013
    --------------------------------------------
      LOOP:  cpu time      0.4219: real time      0.4260

 eigenvalue-minimisations  :  1160
 total energy-change (2. order) :-0.7004615E-01  (-0.5264933E-02)
 number of electron      90.0000872 magnetization       0.1864985
 augmentation part       56.1894715 magnetization       0.1183211

 Broyden mixing:
  rms(total) = 0.23924E-01    rms(broyden)= 0.23913E-01
  rms(prec ) = 0.25907E-01
  weight for this iteration     100.00

 eigenvalues of (default mixing * dielectric matrix)
  average eigenvalue GAMMA=   1.7921
 11.2675  2.8063  2.1321  1.4050  0.9003  0.9003  0.7992  0.7992  0.6606  0.2974
  0.4804  0.4429  0.4060

 Free energy of the ion-electron system (eV)
  ---------------------------------------------------
  alpha Z        PSCENC =       216.17040255
  Ewald energy   TEWEN  =     42301.25362179
  -Hartree energ DENC   =    -53069.83523649
  -exchange      EXHF   =         0.00000000
  -V(xc)+E(xc)   XCENC  =       362.64100953
  PAW double counting   =     10518.05129281   -11379.97944498
  entropy T*S    EENTRO =         0.00734138
  eigenvalues    EBANDS =      -135.74621325
  atomic energy  EATOM  =     11152.61838693
  Solvation  Ediel_sol  =         0.00000000
  ---------------------------------------------------
  free energy    TOTEN  =       -34.81883974 eV

  energy without entropy =      -34.82618112  energy(sigma->0) =      -34.82128686


--------------------------------------------------------------------------------------------------------




--------------------------------------- Iteration      1(  19)  ---------------------------------------


    POTLOK:  cpu time      0.0160: real time      0.0163
    SETDIJ:  cpu time      0.0055: real time      0.0056
     EDDAV:  cpu time      0.3165: real time      0.3194
       DOS:  cpu time      0.0009: real time      0.0009
    CHARGE:  cpu time      0.0499: real time      0.0504
    MIXING:  cpu time      0.0014: real time      0.0014
    --------------------------------------------
      LOOP:  cpu time      0.3903: real time      0.3939

 eigenvalue-minimisations  :  1032
 total energy-change (2. order) :-0.6238400E-01  (-0.2431352E-02)
 number of electron      90.0000872 magnetization       0.1649946
 augmentation part       56.1981076 magnetization       0.1263558

 Broyden mixing:
  rms(total) = 0.17210E-01    rms(broyden)= 0.17204E-01
  rms(prec ) = 0.18117E-01
  weight for this iteration     100.00

 eigenvalues of (default mixing * dielectric matrix)
  average eigenvalue GAMMA=   1.7596
 11.3627  3.0078  2.3691  1.1886  1.1886  0.8780  0.8780  0.7527  0.7527  0.2974
  0.6280  0.4841  0.4427  0.4034

 Free energy of the ion-electron system (eV)
  ---------------------------------------------------
  alpha Z        PSCENC =       216.17040255
  Ewald energy   TEWEN  =     42301.25362179
  -Hartree energ DENC   =    -53063.89106900
  -exchange      EXHF   =         0.00000000
  -V(xc)+E(xc)   XCENC  =       362.56673310
  PAW double counting   =     10511.39914518   -11373.01979633
  entropy T*S    EENTRO =         0.00827112
  eigenvalues    EBANDS =      -141.98691907
  atomic energy  EATOM  =     11152.61838693
  Solvation  Ediel_sol  =         0.00000000
  ---------------------------------------------------
  free energy    TOTEN  =       -34.88122374 eV

  energy without entropy =      -34.88949486  energy(sigma->0) =      -34.88398078


--------------------------------------------------------------------------------------------------------




--------------------------------------- Iteration      1(  20)  ---------------------------------------


    POTLOK:  cpu time      0.0161: real time      0.0163
    SETDIJ:  cpu time      0.0055: real time      0.0056
     EDDAV:  cpu time      0.3430: real time      0.3465
       DOS:  cpu time      0.0009: real time      0.0009
    CHARGE:  cpu time      0.0502: real time      0.0505
    MIXING:  cpu time      0.0015: real time      0.0016
    --------------------------------------------
      LOOP:  cpu time      0.4173: real time      0.4214

 eigenvalue-minimisations  :  1152
 total energy-change (2. order) :-0.3980740E-01  (-0.4794926E-03)
 number of electron      90.0000872 magnetization       0.1363166
 augmentation part       56.1929187 magnetization       0.0996275

 Broyden mixing:
  rms(total) = 0.14583E-01    rms(broyden)= 0.14582E-01
  rms(prec ) = 0.15785E-01
  weight for this iteration     100.00

 eigenvalues of (default mixing * dielectric matrix)
  average eigenvalue GAMMA=   1.7291
 11.3930  3.1130  2.5672  1.4749  1.2288  0.9239  0.9239  0.7657  0.7657  0.6578
  0.2974  0.5050  0.4703  0.4472  0.4028

 Free energy of the ion-electron system (eV)
  ---------------------------------------------------
  alpha Z        PSCENC =       216.17040255
  Ewald energy   TEWEN  =     42301.25362179
  -Hartree energ DENC   =    -53063.10339722
  -exchange      EXHF   =         0.00000000
  -V(xc)+E(xc)   XCENC  =       362.52822499
  PAW double counting   =     10514.37817325   -11376.16787992
  entropy T*S    EENTRO =         0.00741982
  eigenvalues    EBANDS =      -142.60598331
  atomic energy  EATOM  =     11152.61838693
  Solvation  Ediel_sol  =         0.00000000
  ---------------------------------------------------
  free energy    TOTEN  =       -34.92103113 eV

  energy without entropy =      -34.92845095  energy(sigma->0) =      -34.92350441


--------------------------------------------------------------------------------------------------------




--------------------------------------- Iteration      1(  21)  ---------------------------------------


    POTLOK:  cpu time      0.0160: real time      0.0163
    SETDIJ:  cpu time      0.0057: real time      0.0057
     EDDAV:  cpu time      0.3388: real time      0.3419
       DOS:  cpu time      0.0009: real time      0.0009
    CHARGE:  cpu time      0.0498: real time      0.0501
    MIXING:  cpu time      0.0016: real time      0.0016
    --------------------------------------------
      LOOP:  cpu time      0.4129: real time      0.4166

 eigenvalue-minimisations  :  1128
 total energy-change (2. order) :-0.3963129E-01  (-0.3322565E-03)
 number of electron      90.0000872 magnetization       0.0842934
 augmentation part       56.1947565 magnetization       0.0547423

 Broyden mixing:
  rms(total) = 0.11385E-01    rms(broyden)= 0.11384E-01
  rms(prec ) = 0.12195E-01
  weight for this iteration     100.00

 eigenvalues of (default mixing * dielectric matrix)
  average eigenvalue GAMMA=   1.7323
 11.4444  3.7695  2.2995  2.0702  0.9903  0.9903  1.0276  0.8296  0.8296  0.7867
  0.6325  0.2974  0.4855  0.3991  0.4322  0.4322

 Free energy of the ion-electron system (eV)
  ---------------------------------------------------
  alpha Z        PSCENC =       216.17040255
  Ewald energy   TEWEN  =     42301.25362179
  -Hartree energ DENC   =    -53060.89282940
  -exchange      EXHF   =         0.00000000
  -V(xc)+E(xc)   XCENC  =       362.48098216
  PAW double counting   =     10516.02157149   -11377.86992432
  entropy T*S    EENTRO =         0.00752968
  eigenvalues    EBANDS =      -144.75040329
  atomic energy  EATOM  =     11152.61838693
  Solvation  Ediel_sol  =         0.00000000
  ---------------------------------------------------
  free energy    TOTEN  =       -34.96066243 eV

  energy without entropy =      -34.96819210  energy(sigma->0) =      -34.96317232


--------------------------------------------------------------------------------------------------------




--------------------------------------- Iteration      1(  22)  ---------------------------------------


    POTLOK:  cpu time      0.0160: real time      0.0163
    SETDIJ:  cpu time      0.0056: real time      0.0056
     EDDAV:  cpu time      0.3340: real time      0.3371
       DOS:  cpu time      0.0009: real time      0.0009
    CHARGE:  cpu time      0.0514: real time      0.0517
    MIXING:  cpu time      0.0016: real time      0.0016
    --------------------------------------------
      LOOP:  cpu time      0.4096: real time      0.4133

 eigenvalue-minimisations  :  1112
 total energy-change (2. order) :-0.3964832E-01  (-0.4758552E-03)
 number of electron      90.0000872 magnetization       0.0624710
 augmentation part       56.2026266 magnetization       0.0503500

 Broyden mixing:
  rms(total) = 0.93901E-02    rms(broyden)= 0.93885E-02
  rms(prec ) = 0.98833E-02
  weight for this iteration     100.00

 eigenvalues of (default mixing * dielectric matrix)
  average eigenvalue GAMMA=   1.7416
 11.4842  3.6868  3.3165  1.8814  1.5199  0.9048  0.9048  0.8520  0.8520  0.8781
  0.6831  0.6123  0.2974  0.4809  0.4403  0.3976  0.4153

 Free energy of the ion-electron system (eV)
  ---------------------------------------------------
  alpha Z        PSCENC =       216.17040255
  Ewald energy   TEWEN  =     42301.25362179
  -Hartree energ DENC   =    -53056.91599859
  -exchange      EXHF   =         0.00000000
  -V(xc)+E(xc)   XCENC  =       362.42307907
  PAW double counting   =     10514.22562061   -11375.93346960
  entropy T*S    EENTRO =         0.00757086
  eigenvalues    EBANDS =      -148.84952435
  atomic energy  EATOM  =     11152.61838693
  Solvation  Ediel_sol  =         0.00000000
  ---------------------------------------------------
  free energy    TOTEN  =       -35.00031075 eV

  energy without entropy =      -35.00788160  energy(sigma->0) =      -35.00283436


--------------------------------------------------------------------------------------------------------




--------------------------------------- Iteration      1(  23)  ---------------------------------------


    POTLOK:  cpu time      0.0161: real time      0.0164
    SETDIJ:  cpu time      0.0056: real time      0.0056
     EDDAV:  cpu time      0.3166: real time      0.3199
       DOS:  cpu time      0.0009: real time      0.0009
    CHARGE:  cpu time      0.0521: real time      0.0524
    MIXING:  cpu time      0.0018: real time      0.0019
    --------------------------------------------
      LOOP:  cpu time      0.3932: real time      0.3970

 eigenvalue-minimisations  :  1028
 total energy-change (2. order) :-0.3687127E-01  (-0.1264442E-03)
 number of electron      90.0000872 magnetization       0.0419909
 augmentation part       56.1980068 magnetization       0.0305390

 Broyden mixing:
  rms(total) = 0.65746E-02    rms(broyden)= 0.65741E-02
  rms(prec ) = 0.68011E-02
  weight for this iteration     100.00

 eigenvalues of (default mixing * dielectric matrix)
  average eigenvalue GAMMA=   1.7859
 11.5048  5.0437  3.2955  2.1440  1.5271  1.1340  0.9158  0.9158  0.8144  0.8144
  0.7926  0.2974  0.6579  0.5554  0.4763  0.4439  0.3983  0.4142

 Free energy of the ion-electron system (eV)
  ---------------------------------------------------
  alpha Z        PSCENC =       216.17040255
  Ewald energy   TEWEN  =     42301.25362179
  -Hartree energ DENC   =    -53056.38967448
  -exchange      EXHF   =         0.00000000
  -V(xc)+E(xc)   XCENC  =       362.39330797
  PAW double counting   =     10516.34844910   -11378.16204037
  entropy T*S    EENTRO =         0.00719194
  eigenvalues    EBANDS =      -149.27682744
  atomic energy  EATOM  =     11152.61838693
  Solvation  Ediel_sol  =         0.00000000
  ---------------------------------------------------
  free energy    TOTEN  =       -35.03718201 eV

  energy without entropy =      -35.04437395  energy(sigma->0) =      -35.03957933


--------------------------------------------------------------------------------------------------------




--------------------------------------- Iteration      1(  24)  ---------------------------------------


    POTLOK:  cpu time      0.0159: real time      0.0162
    SETDIJ:  cpu time      0.0055: real time      0.0056
     EDDAV:  cpu time      0.2904: real time      0.2930
       DOS:  cpu time      0.0009: real time      0.0009
    CHARGE:  cpu time      0.0524: real time      0.0529
    MIXING:  cpu time      0.0019: real time      0.0019
    --------------------------------------------
      LOOP:  cpu time      0.3670: real time      0.3705

 eigenvalue-minimisations  :   908
 total energy-change (2. order) :-0.3624735E-01  (-0.1107529E-03)
 number of electron      90.0000872 magnetization       0.0244043
 augmentation part       56.1969704 magnetization       0.0161417

 Broyden mixing:
  rms(total) = 0.49479E-02    rms(broyden)= 0.49473E-02
  rms(prec ) = 0.52143E-02
  weight for this iteration     100.00

 eigenvalues of (default mixing * dielectric matrix)
  average eigenvalue GAMMA=   1.8295
 11.5390  6.5433  3.1766  2.4001  1.6429  1.3372  0.9085  0.9085  0.8351  0.8351
  0.8184  0.6982  0.2974  0.6063  0.4951  0.4608  0.4465  0.3984  0.4140

 Free energy of the ion-electron system (eV)
  ---------------------------------------------------
  alpha Z        PSCENC =       216.17040255
  Ewald energy   TEWEN  =     42301.25362179
  -Hartree energ DENC   =    -53054.91409185
  -exchange      EXHF   =         0.00000000
  -V(xc)+E(xc)   XCENC  =       362.35840761
  PAW double counting   =     10515.88080494   -11377.66804335
  entropy T*S    EENTRO =         0.00687217
  eigenvalues    EBANDS =      -150.77979014
  atomic energy  EATOM  =     11152.61838693
  Solvation  Ediel_sol  =         0.00000000
  ---------------------------------------------------
  free energy    TOTEN  =       -35.07342937 eV

  energy without entropy =      -35.08030154  energy(sigma->0) =      -35.07572009


--------------------------------------------------------------------------------------------------------




--------------------------------------- Iteration      1(  25)  ---------------------------------------


    POTLOK:  cpu time      0.0160: real time      0.0162
    SETDIJ:  cpu time      0.0056: real time      0.0056
     EDDAV:  cpu time      0.2762: real time      0.2787
       DOS:  cpu time      0.0009: real time      0.0010
    CHARGE:  cpu time      0.0519: real time      0.0525
    MIXING:  cpu time      0.0021: real time      0.0022
    --------------------------------------------
      LOOP:  cpu time      0.3527: real time      0.3561

 eigenvalue-minimisations  :   840
 total energy-change (2. order) :-0.2203021E-01  (-0.7213220E-04)
 number of electron      90.0000872 magnetization       0.0116340
 augmentation part       56.1985470 magnetization       0.0069961

 Broyden mixing:
  rms(total) = 0.28055E-02    rms(broyden)= 0.28050E-02
  rms(prec ) = 0.30377E-02
  weight for this iteration     100.00

 eigenvalues of (default mixing * dielectric matrix)
  average eigenvalue GAMMA=   1.9283
 11.6589  8.6636  3.3611  2.5076  2.0489  1.1936  1.1936  0.8930  0.8930  0.8025
  0.8025  0.8217  0.6797  0.2974  0.5876  0.4803  0.4366  0.4366  0.4098  0.3976

 Free energy of the ion-electron system (eV)
  ---------------------------------------------------
  alpha Z        PSCENC =       216.17040255
  Ewald energy   TEWEN  =     42301.25362179
  -Hartree energ DENC   =    -53053.51563686
  -exchange      EXHF   =         0.00000000
  -V(xc)+E(xc)   XCENC  =       362.33326840
  PAW double counting   =     10514.78225843   -11376.50675660
  entropy T*S    EENTRO =         0.00686167
  eigenvalues    EBANDS =      -152.23786588
[...]
      2      -5.5206      1.00000
      3      -4.7618      1.00000
      4      -4.0153      1.00000
      5      -3.5534      1.00000
      6      -3.2047      1.00000
      7      -3.1005      1.00000
      8      -3.0873      1.00000
      9      -2.9645      1.00000
     10      -2.7951      1.00000
     11      -2.7935      1.00000
     12      -2.7820      1.00000
     13      -2.5501      1.00000
     14      -2.4982      1.00000
     15      -2.4784      1.00000
     16      -2.3931      1.00000
     17      -2.2193      1.00000
     18      -1.9960      1.00000
     19      -1.8785      1.00000
     20      -1.8221      1.00000
     21      -1.6782      1.00000
     22      -1.5476      1.00000
     23      -1.3052      1.00000
     24      -1.2365      1.00000
     25      -1.1901      1.00000
     26      -1.1269      1.00000
     27      -1.1064      1.00000
     28      -1.0009      1.00000
     29      -0.9755      1.00000
     30      -0.9302      1.00000
     31      -0.9034      1.00000
     32      -0.8595      1.00000
     33      -0.7507      1.00000
     34      -0.7303      1.00000
     35      -0.6751      1.00000
     36      -0.6485      1.00000
     37      -0.6325      1.00000
     38      -0.5395      1.00000
     39      -0.5189      1.00000
     40      -0.4477      1.00000
     41      -0.4206      1.00000
     42      -0.3743      1.00000
     43      -0.3194      1.00000
     44      -0.3063      1.00000
     45       0.6391      1.03540
     46       2.5472     -0.00000
     47       4.3502     -0.00000
     48       4.4968     -0.00000
     49       5.0646     -0.00000
     50       6.0061     -0.00000
     51       6.6798      0.00000
     52       7.0683      0.00000
     53       7.2018      0.00000
     54       7.6184      0.00000
     55       8.1703      0.00000
     56       8.2969      0.00000
     57       9.0863      0.00000
     58       9.5798      0.00000
     59       9.6092      0.00000
     60       9.7729      0.00000

 k-point     4 :       0.3333    0.3333    0.0000
  band No.  band energies     occupation 
      1      -5.6074      1.00000
      2      -4.6950      1.00000
      3      -3.9742      1.00000
      4      -3.4223      1.00000
      5      -3.3425      1.00000
      6      -3.0658      1.00000
      7      -3.0087      1.00000
      8      -2.8928      1.00000
      9      -2.8616      1.00000
     10      -2.7034      1.00000
     11      -2.6819      1.00000
     12      -2.4526      1.00000
     13      -2.3893      1.00000
     14      -2.2904      1.00000
     15      -2.2020      1.00000
     16      -2.1720      1.00000
     17      -2.1131      1.00000
     18      -2.0486      1.00000
     19      -1.9332      1.00000
     20      -1.8723      1.00000
     21      -1.8512      1.00000
     22      -1.7953      1.00000
     23      -1.7621      1.00000
     24      -1.6676      1.00000
     25      -1.5452      1.00000
     26      -1.4329      1.00000
     27      -1.4091      1.00000
     28      -1.1593      1.00000
     29      -1.1284      1.00000
     30      -1.0957      1.00000
     31      -1.0036      1.00000
     32      -0.9575      1.00000
     33      -0.8847      1.00000
     34      -0.8700      1.00000
     35      -0.7632      1.00000
     36      -0.6871      1.00000
     37      -0.6327      1.00000
     38      -0.6044      1.00000
     39      -0.5607      1.00000
     40      -0.4923      1.00000
     41      -0.4688      1.00000
     42      -0.3988      1.00000
     43      -0.0692      1.00000
     44       0.7901      0.84177
     45       1.8296     -0.00000
     46       2.2589     -0.00000
     47       2.7831     -0.00000
     48       4.1172     -0.00000
     49       4.1823     -0.00000
     50       5.6499     -0.00000
     51       5.7924     -0.00000
     52       6.1973     -0.00000
     53       6.6983      0.00000
     54       7.0675      0.00000
     55       7.9839      0.00000
     56       8.1118      0.00000
     57       8.2158      0.00000
     58       8.6943      0.00000
     59       9.1891      0.00000
     60       9.4665      0.00000


--------------------------------------------------------------------------------------------------------


 soft charge-density along one line, spin component           1
         0         1         2         3         4         5         6         7         8         9
 total charge-density along one line
 
 soft charge-density along one line, spin component           2
         0         1         2         3         4         5         6         7         8         9
 total charge-density along one line
 
 pseudopotential strength for first ion, spin component:           1
 -7.164  -0.000   0.000  -0.000  -0.000  -1.508   0.000  -0.000
 -0.000  -7.150   0.001  -0.000  -0.000   0.000  -1.521  -0.000
  0.000   0.001  -7.171  -0.000   0.003  -0.000  -0.000  -1.507
 -0.000  -0.000  -0.000  -7.162  -0.000   0.000   0.000   0.000
 -0.000  -0.000   0.003  -0.000  -7.159   0.000   0.000  -0.002
 -1.508   0.000  -0.000   0.000   0.000   8.051  -0.000   0.000
  0.000  -1.521  -0.000   0.000   0.000  -0.000   8.063   0.000
 -0.000  -0.000  -1.507   0.000  -0.002   0.000   0.000   8.055
  0.000   0.000   0.000  -1.513   0.000  -0.000  -0.000  -0.000
  0.000   0.000  -0.002   0.000  -1.512  -0.000  -0.000   0.000
  0.000  -0.000  -0.004   0.000  -0.000   0.000   0.000   0.004
  0.000  -0.000  -0.007   0.000  -0.001   0.000   0.000   0.008
  0.000  -0.017  -0.000   0.000  -0.000  -0.000   0.013  -0.000
  0.000   0.000  -0.017   0.000   0.001   0.000   0.000   0.013
  0.000   0.000  -0.000  -0.015   0.000  -0.000   0.000   0.000
  0.000  -0.018  -0.000  -0.000  -0.000   0.000   0.015  -0.000
 -0.000   0.000  -0.018   0.000   0.001   0.000   0.000   0.013
  0.000  -0.000  -0.000  -0.016   0.000   0.000   0.000  -0.000
 pseudopotential strength for first ion, spin component:           2
 -7.164  -0.000   0.000  -0.000  -0.000  -1.508   0.000  -0.000
 -0.000  -7.150   0.001  -0.000  -0.000   0.000  -1.521  -0.000
  0.000   0.001  -7.171  -0.000   0.003  -0.000  -0.000  -1.507
 -0.000  -0.000  -0.000  -7.162  -0.000   0.000   0.000   0.000
 -0.000  -0.000   0.003  -0.000  -7.159   0.000   0.000  -0.002
 -1.508   0.000  -0.000   0.000   0.000   8.051  -0.000   0.000
  0.000  -1.521  -0.000   0.000   0.000  -0.000   8.063   0.000
 -0.000  -0.000  -1.507   0.000  -0.002   0.000   0.000   8.055
  0.000   0.000   0.000  -1.513   0.000  -0.000  -0.000  -0.000
  0.000   0.000  -0.002   0.000  -1.512  -0.000  -0.000   0.000
  0.000  -0.000  -0.004   0.000  -0.000   0.000   0.000   0.004
  0.000  -0.000  -0.007   0.000  -0.001   0.000   0.000   0.008
  0.000  -0.017  -0.000   0.000  -0.000  -0.000   0.013  -0.000
  0.000   0.000  -0.017   0.000   0.001   0.000   0.000   0.013
  0.000   0.000  -0.000  -0.015   0.000  -0.000   0.000   0.000
  0.000  -0.018  -0.000  -0.000  -0.000   0.000   0.015  -0.000
 -0.000   0.000  -0.018   0.000   0.001   0.000   0.000   0.013
  0.000  -0.000  -0.000  -0.016   0.000   0.000   0.000  -0.000
 total augmentation occupancy for first ion, spin component:           1
  1.921   0.000   0.000  -0.000   0.000  -0.012   0.000   0.000   0.000   0.000   0.000   0.000   0.000   0.000   0.001   0.000
  0.000   1.946   0.000   0.000   0.000   0.000  -0.028  -0.000   0.000   0.000   0.000   0.000   0.023  -0.001   0.000  -0.022
  0.000   0.000   1.928   0.000   0.002   0.000  -0.000  -0.014   0.000   0.005  -0.016   0.015  -0.000   0.069   0.000   0.000
 -0.000   0.000   0.000   1.942   0.000   0.000   0.000   0.000  -0.025   0.000   0.000   0.000   0.000   0.000   0.066   0.000
  0.000   0.000   0.002   0.000   1.926   0.000   0.000   0.005   0.000  -0.017  -0.051   0.010   0.001   0.023   0.000  -0.000
 -0.012   0.000   0.000   0.000   0.000   0.010   0.000   0.000  -0.000   0.000   0.000   0.000   0.000   0.000   0.000   0.000
  0.000  -0.028  -0.000   0.000   0.000   0.000   0.010  -0.000   0.000  -0.000  -0.000   0.000   0.021  -0.000   0.000  -0.001
  0.000  -0.000  -0.014   0.000   0.005   0.000  -0.000   0.011   0.000   0.001  -0.015  -0.000  -0.000   0.020   0.000   0.000
  0.000   0.000   0.000  -0.025   0.000  -0.000   0.000   0.000   0.012   0.000   0.000   0.000   0.000   0.000   0.031   0.000
  0.000   0.000   0.005   0.000  -0.017   0.000  -0.000   0.001   0.000   0.010  -0.006   0.001  -0.000   0.003   0.000   0.000
  0.000   0.000  -0.016   0.000  -0.051   0.000  -0.000  -0.015   0.000  -0.006   1.700  -0.129  -0.000   0.228   0.000   0.000
  0.000   0.000   0.015   0.000   0.010   0.000   0.000  -0.000   0.000   0.001  -0.129   0.016   0.000  -0.028   0.000  -0.000
  0.000   0.023  -0.000   0.000   0.001   0.000   0.021  -0.000   0.000  -0.000  -0.000   0.000   0.214  -0.001   0.000  -0.013
  0.000  -0.001   0.069   0.000   0.023   0.000  -0.000   0.020   0.000   0.003   0.228  -0.028  -0.001   0.110   0.000   0.000
  0.001   0.000   0.000   0.066   0.000   0.000   0.000   0.000   0.031   0.000   0.000   0.000   0.000   0.000   0.151   0.000
  0.000  -0.022   0.000   0.000  -0.000   0.000  -0.001   0.000   0.000   0.000   0.000  -0.000  -0.013   0.000   0.000   0.001
  0.000  -0.000  -0.027   0.000  -0.001   0.000   0.000  -0.001   0.000  -0.000  -0.029   0.003   0.000  -0.010   0.000  -0.000
 -0.000   0.000   0.000  -0.025   0.000  -0.000   0.000   0.000  -0.002   0.000   0.000   0.000   0.000   0.000  -0.010   0.000
 total augmentation occupancy for first ion, spin component:           2
  0.000   0.000   0.000   0.000   0.000   0.000   0.000   0.000   0.000   0.000   0.000   0.000   0.000   0.000   0.000   0.000
  0.000  -0.000  -0.000   0.000  -0.000   0.000  -0.000  -0.000   0.000  -0.000  -0.000  -0.000   0.000  -0.000   0.000  -0.000
  0.000  -0.000   0.000   0.000   0.000   0.000   0.000   0.000   0.000  -0.000   0.000   0.000  -0.000  -0.000   0.000   0.000
  0.000   0.000   0.000  -0.000   0.000   0.000   0.000   0.000  -0.000   0.000   0.000   0.000   0.000   0.000   0.000   0.000
  0.000  -0.000   0.000   0.000  -0.000   0.000  -0.000   0.000   0.000  -0.000   0.000   0.000  -0.000  -0.000   0.000   0.000
  0.000   0.000   0.000   0.000   0.000  -0.000   0.000   0.000   0.000   0.000   0.000   0.000   0.000   0.000   0.000   0.000
  0.000  -0.000   0.000   0.000  -0.000   0.000   0.000   0.000   0.000  -0.000  -0.000   0.000  -0.000  -0.000   0.000   0.000
  0.000  -0.000   0.000   0.000   0.000   0.000   0.000  -0.000   0.000   0.000  -0.000   0.000   0.000   0.000   0.000  -0.000
  0.000   0.000   0.000  -0.000   0.000   0.000   0.000   0.000  -0.000   0.000   0.000   0.000   0.000   0.000  -0.000   0.000
  0.000  -0.000  -0.000   0.000  -0.000   0.000  -0.000   0.000   0.000  -0.000  -0.000   0.000  -0.000  -0.000   0.000   0.000
  0.000  -0.000   0.000   0.000   0.000   0.000  -0.000  -0.000   0.000  -0.000  -0.000   0.000  -0.000  -0.000   0.000   0.000
  0.000  -0.000   0.000   0.000   0.000   0.000   0.000   0.000   0.000   0.000   0.000  -0.000   0.000   0.000   0.000  -0.000
  0.000   0.000  -0.000   0.000  -0.000   0.000  -0.000   0.000   0.000  -0.000  -0.000   0.000   0.000   0.000   0.000   0.000
  0.000  -0.000  -0.000   0.000  -0.000   0.000  -0.000   0.000   0.000  -0.000  -0.000   0.000   0.000  -0.000   0.000  -0.000
  0.000   0.000   0.000   0.000   0.000   0.000   0.000   0.000  -0.000   0.000   0.000   0.000   0.000   0.000   0.000   0.000
  0.000  -0.000   0.000   0.000   0.000   0.000   0.000  -0.000   0.000   0.000   0.000  -0.000   0.000  -0.000   0.000   0.000
  0.000   0.000   0.000   0.000   0.000   0.000  -0.000  -0.000   0.000   0.000   0.000  -0.000  -0.000   0.000   0.000  -0.000
 -0.000   0.000   0.000  -0.000   0.000  -0.000   0.000   0.000   0.000   0.000   0.000   0.000   0.000   0.000  -0.000   0.000


------------------------ aborting loop because EDIFF is reached ----------------------------------------


    CHARGE:  cpu time      0.0502: real time      0.0504
    FORLOC:  cpu time      0.0012: real time      0.0012
    FORNL :  cpu time      0.1420: real time      0.1428
    STRESS:  cpu time      0.1616: real time      0.1624
    FORCOR:  cpu time      0.0160: real time      0.0161
    FORHAR:  cpu time      0.0028: real time      0.0028
    MIXING:  cpu time      0.0005: real time      0.0005
    OFIELD:  cpu time      0.0000: real time      0.0000

 ---------------------------------------------------------------------------------------------

         DFTD3 V3.0 Rev 1        
 Edisp (eV)   -3.18150

 E6    (eV) :    -1.3013
 E8    (eV) :    -1.8802
 % E8        : 59.10
    FORVDW:  cpu time      0.0494: real time      0.0496

  FORCE on cell =-STRESS in cart. coord.  units (eV):
  Direction    XX          YY          ZZ          XY          YZ          ZX
  --------------------------------------------------------------------------------------
  Alpha Z   216.17040   216.17040   216.17040
  Ewald   47896.27539 48066.51264-53750.08006     0.00000     5.31310     0.00000
  Hartree 50986.82708 51109.71718-49147.62013    -0.00000    -0.74555    -0.00000
  E(xc)    -520.44392  -520.15438  -520.58881    -0.00000     0.06984    -0.00000
  Local  -99894.78462************101890.15398    -0.00000    -1.35919    -0.00000
  n-local  -179.47100  -175.36084  -180.23255     6.86066    -0.26697    -0.01623
  augment   755.52396   758.58695   757.69219     0.00000    -0.01696    -0.00000
  Kinetic   738.81147   737.72659   736.69082     6.65929    -2.70350    -0.00324
  Fock        0.00000     0.00000     0.00000     0.00000     0.00000     0.00000
  vdW        -3.88738    -3.85488    -2.77632     0.00000     0.07376    -0.00000
  -------------------------------------------------------------------------------------
  Total      -4.97860    -4.53516    -0.59049     0.00000     0.36454     0.00000
  in kB     -35.69455   -32.51524    -4.23356     0.00000     2.61359     0.00000
  external pressure =      -24.15 kB  Pullay stress =        0.00 kB


 VOLUME and BASIS-vectors are now :
 -----------------------------------------------------------------------------
  energy-cutoff  :      400.00
  volume of cell :      223.47
      direct lattice vectors                 reciprocal lattice vectors
     3.630000114  0.000000000  0.000000000     0.275482085  0.000000000  0.000000000
     0.000000000  2.566797733  0.000000000     0.000000000  0.389590495  0.000000000
     0.000000000  0.000000000 23.983791351     0.000000000  0.000000000  0.041694826

  length of vectors
     3.630000114  2.566797733 23.983791351     0.275482085  0.389590495  0.041694826


 FORCES acting on ions
    electron-ion (+dipol)            ewald-force                    non-local-force                 convergence-correction
 -----------------------------------------------------------------------------------------------
   -.426E-13 0.535E-01 0.459E+04   -.745E-07 -.892E-01 -.459E+04   0.000E+00 0.370E-01 -.620E+01   -.192E-10 -.103E-01 -.679E-01
   0.736E-06 0.252E+00 0.352E+04   0.134E-06 -.257E+00 -.352E+04   0.000E+00 0.534E-01 0.150E+01   0.106E-09 -.510E-01 -.455E+00
   -.554E-13 0.137E+00 0.208E+04   -.124E-06 -.178E+00 -.208E+04   0.000E+00 0.128E+00 -.101E+01   0.707E-10 -.823E-01 -.848E+00
   0.753E-06 -.253E+00 0.771E+03   0.128E-06 0.258E+00 -.770E+03   0.000E+00 0.293E-01 0.327E+00   -.274E-10 -.283E-01 -.103E+01
   -.560E-13 -.661E-01 -.578E+03   -.128E-06 0.582E-01 0.580E+03   0.000E+00 0.393E-01 -.197E+00   -.419E-10 -.204E-01 -.101E+01
   0.760E-06 0.395E+00 -.189E+04   0.124E-06 -.350E+00 0.189E+04   0.000E+00 -.310E-01 0.110E+01   -.144E-09 -.140E-01 -.813E+00
   -.498E-13 0.194E-01 -.332E+04   -.136E-06 -.326E-01 0.333E+04   0.000E+00 -.141E-01 -.161E+01   -.139E-10 0.244E-01 -.444E+00
   0.805E-06 -.319E+01 -.440E+04   0.808E-07 0.325E+01 0.439E+04   0.000E+00 -.154E+00 0.713E+01   -.112E-09 0.859E-01 -.468E-01
   0.547E-07 0.116E+02 -.390E+03   -.392E-08 -.143E+02 0.386E+03   0.000E+00 0.269E+01 0.374E+01   -.184E-11 -.263E-02 0.333E-01
   0.506E-07 -.905E+01 -.380E+03   -.130E-08 0.116E+02 0.383E+03   0.000E+00 -.258E+01 -.396E+01   -.539E-11 -.918E-03 0.368E-01
 -----------------------------------------------------------------------------------------------
   0.316E-05 -.734E-01 0.379E+01   0.318E-13 0.675E-13 0.171E-12   0.000E+00 0.200E+00 0.819E+00   -.189E-09 -.995E-01 -.464E+01
 
 
 POSITION                                       TOTAL-FORCE (eV/Angst)
 -----------------------------------------------------------------------------------
      0.00000     -0.00223     -0.01856         0.000000     -0.013947     -0.007365
      1.81500      1.27139      1.11461         0.000000     -0.009231     -0.013442
      0.00000     -0.04089      2.41393         0.000000      0.000273      0.023530
      1.81500      1.21098      3.66837         0.000000      0.002993      0.012302
      0.00000     -0.10113      4.93079         0.000000      0.007527     -0.024106
      1.81500      1.15471      6.19020         0.000000     -0.001495     -0.019618
      0.00000     -0.16736      7.48545         0.000000     -0.001172      0.003540
      1.81500      1.09704      8.61972         0.000000     -0.007903      0.008361
      1.81500      0.40885     10.62560         0.000000      0.011172      0.005642
      1.81500      0.82973     11.26760         0.000000      0.011784      0.011157
 -----------------------------------------------------------------------------------
    total drift:                                0.000003      0.026982     -0.034403


--------------------------------------------------------------------------------------------------------



  FREE ENERGIE OF THE ION-ELECTRON SYSTEM (eV)
  ---------------------------------------------------
  free  energy   TOTEN  =       -38.55233693 eV

  energy  without entropy=      -38.54687535  energy(sigma->0) =      -38.55051640
 
 d Force = 0.1044330E-03[ 0.207E-05, 0.207E-03]  d Energy = 0.1497417E-03-0.453E-04
 d Force =-0.8637184E+00[-0.864E+00,-0.863E+00]  d Ewald  =-0.8637185E+00 0.344E-07


--------------------------------------------------------------------------------------------------------


    POTLOK:  cpu time      0.0249: real time      0.0250


--------------------------------------------------------------------------------------------------------


 stress matrix after NEB project (eV)
     -4.97860      0.00000      0.00000
      0.00000     -4.53516      0.36454
      0.00000      0.36454     -0.59049
  FORCES: max atom, RMS     0.025254    0.016792
  FORCE total and by dimension    0.053102    0.024106
  Stress total and by dimension    6.780015    4.978603


--------------------------------------------------------------------------------------------------------


  
 reached required accuracy - stopping structural energy minimisation
     LOOP+:  cpu time      1.1915: real time      1.2102
    4ORBIT:  cpu time      0.0000: real time      0.0000

 total amount of memory used by VASP MPI-rank0    35069. kBytes
=======================================================================

   base      :      30000. kBytes
   nonl-proj :       1086. kBytes
   fftplans  :        642. kBytes
   grid      :       1621. kBytes
   one-center:         62. kBytes
   wavefun   :       1658. kBytes
 
  
  
 General timing and accounting informations for this job:
 ========================================================
  
                  Total CPU time used (sec):      144.291
                            User time (sec):      143.789
                          System time (sec):        0.502
                         Elapsed time (sec):      147.990
  
                   Maximum memory used (kb):      232584.
                   Average memory used (kb):          N/A
  
                          Minor page faults:       124104
                          Major page faults:         6648
                 Voluntary context switches:         4658
