<?xml version="1.0" encoding="ISO-8859-1"?>
<modeling>
 <generator>
  <i name="program" type="string">vasp </i>
  <i name="version" type="string">6.3.2  </i>
  <i name="subversion" type="string">27Jun22 (build Aug 17 2022 15:43:34) complex                          parallel </i>
  <i name="platform" type="string">tv2STDVTST </i>
  <i name="date" type="string">2025 02 04 </i>
  <i name="time" type="string">13:32:01 </i>
 </generator>
 <incar>
  <i type="int" name="ISTART">     0</i>
  <i type="string" name="PREC">Normal</i>
  <i type="int" name="ISPIN">     2</i>
  <i type="int" name="ICHARG">     2</i>
  <i type="int" name="IBRION">     2</i>
  <i name="EDIFF">      0.00020000</i>
  <i name="EDIFFG">     -0.03000000</i>
  <i type="int" name="NSW">   800</i>
  <i type="int" name="ISIF">     2</i>
  <i type="int" name="ISYM">     1</i>
  <i name="ENCUT">    400.00000000</i>
  <i name="POTIM">      0.50000000</i>
  <i type="logical" name="LREAL"> F  </i>
  <i type="int" name="ISMEAR">     1</i>
  <i name="SIGMA">      0.20000000</i>
  <i type="logical" name="LWAVE"> F  </i>
  <i type="logical" name="LCHARG"> F  </i>
  <i type="string" name="GGA">PE</i>
  <i type="int" name="IVDW">    11</i>
 </incar>
 <primitive_cell>
  <structure name="primitive_cell" >
   <crystal>
    <varray name="basis" >
     <v>       3.63000011       0.00000000       0.00000000 </v>
     <v>       0.00000000       2.56679773       0.00000000 </v>
     <v>       0.00000000       0.00000000      23.98379135 </v>
    </varray>
    <i name="volume">    223.46840188 </i>
    <varray name="rec_basis" >
     <v>       0.27548208       0.00000000       0.00000000 </v>
     <v>       0.00000000       0.38959050       0.00000000 </v>
     <v>       0.00000000       0.00000000       0.04169483 </v>
    </varray>
   </crystal>
   <varray name="positions" >
    <v>       0.00000000       0.00000000       0.00000000 </v>
    <v>       0.50000000       0.50000000       0.05351109 </v>
    <v>       0.00000000       0.00000000       0.10468148 </v>
    <v>       0.50000000       0.50000000       0.15792996 </v>
    <v>       0.00000000       0.00000000       0.21070899 </v>
    <v>       0.50000000       0.50000000       0.26289048 </v>
    <v>       0.00000000       0.00000000       0.31711592 </v>
    <v>       0.50000000       0.50000000       0.36467590 </v>
    <v>       0.50000000       0.00000000       0.42690792 </v>
    <v>       0.50000000       0.20550963       0.44890201 </v>
   </varray>
  </structure>
  <varray name="primitive_index" >
   <v type="int" >        1 </v>
   <v type="int" >        2 </v>
   <v type="int" >        3 </v>
   <v type="int" >        4 </v>
   <v type="int" >        5 </v>
   <v type="int" >        6 </v>
   <v type="int" >        7 </v>
   <v type="int" >        8 </v>
   <v type="int" >        9 </v>
   <v type="int" >       10 </v>
  </varray>
 </primitive_cell>
 <kpoints>
  <generation param="Monkhorst-Pack">
   <v type="int" name="divisions">       3        3        1 </v>
   <v name="usershift">      0.00000000       0.00000000       0.00000000 </v>
   <v name="genvec1">      0.33333333       0.00000000       0.00000000 </v>
   <v name="genvec2">      0.00000000       0.33333333       0.00000000 </v>
   <v name="genvec3">      0.00000000       0.00000000       1.00000000 </v>
   <v name="shift">      0.00000000       0.00000000       0.00000000 </v>
  </generation>
  <varray name="kpointlist" >
   <v>       0.00000000       0.00000000       0.00000000 </v>
   <v>       0.33333333       0.00000000       0.00000000 </v>
   <v>       0.00000000       0.33333333       0.00000000 </v>
   <v>       0.33333333       0.33333333       0.00000000 </v>
  </varray>
  <varray name="weights" >
   <v>       0.11111111 </v>
   <v>       0.22222222 </v>
   <v>       0.22222222 </v>
   <v>       0.44444444 </v>
  </varray>
 </kpoints>
 <parameters>
  <separator name="general" >
   <i type="string" name="SYSTEM">unknown system</i>
   <i type="logical" name="LCOMPAT"> F  </i>
  </separator>
  <separator name="electronic" >
   <i type="string" name="PREC">normal</i>
   <i name="ENMAX">    400.00000000</i>
   <i name="ENAUG">    586.98000000</i>
   <i name="EDIFF">      0.00020000</i>
   <i type="int" name="IALGO">    38</i>
   <i type="int" name="IWAVPR">    11</i>
   <i type="int" name="NBANDS">    60</i>
   <i type="int" name="NBANDSLOW">    -1</i>
   <i type="int" name="NBANDSHIGH">    -1</i>
   <i name="NELECT">     90.00000000</i>
   <i type="int" name="TURBO">     0</i>
   <i type="int" name="IRESTART">     0</i>
   <i type="int" name="NREBOOT">     0</i>
   <i type="int" name="NMIN">     0</i>
   <i name="EREF">      0.00000000</i>
   <separator name="electronic smearing" >
    <i type="int" name="ISMEAR">     1</i>
    <i name="SIGMA">      0.20000000</i>
    <i name="KSPACING">      0.50000000</i>
    <i type="logical" name="KGAMMA"> T  </i>
    <i type="logical" name="KBLOWUP"> T  </i>
   </separator>
   <separator name="electronic projectors" >
    <i type="logical" name="LREAL"> F  </i>
    <v name="ROPT">      0.00000000      0.00000000</v>
    <i type="int" name="LMAXPAW">  -100</i>
    <i type="int" name="LMAXMIX">     2</i>
    <i type="logical" name="NLSPLINE"> F  </i>
   </separator>
   <separator name="electronic startup" >
    <i type="int" name="ISTART">     0</i>
    <i type="int" name="ICHARG">     2</i>
    <i type="int" name="INIWAV">     1</i>
   </separator>
   <separator name="electronic spin" >
    <i type="int" name="ISPIN">     2</i>
    <i type="logical" name="LNONCOLLINEAR"> F  </i>
    <v name="MAGMOM">      1.00000000      1.00000000      1.00000000      1.00000000      1.00000000      1.00000000      1.00000000      1.00000000      1.00000000      1.00000000</v>
    <i name="NUPDOWN">     -1.00000000</i>
    <i type="logical" name="LSORBIT"> F  </i>
    <v name="SAXIS">      0.00000000      0.00000000      1.00000000</v>
    <i type="logical" name="LSPIRAL"> F  </i>
    <v name="QSPIRAL">      0.00000000      0.00000000      0.00000000</v>
    <i type="logical" name="LZEROZ"> F  </i>
   </separator>
   <separator name="electronic exchange-correlation" >
    <i type="logical" name="LASPH"> F  </i>
    <i type="logical" name="LMETAGGA"> F  </i>
   </separator>
   <separator name="electronic convergence" >
    <i type="int" name="NELM">    60</i>
    <i type="int" name="NELMDL">    -5</i>
    <i type="int" name="NELMIN">     2</i>
    <i name="ENINI">    400.00000000</i>
    <separator name="electronic convergence detail" >
     <i type="logical" name="LDIAG"> T  </i>
     <i type="logical" name="LSUBROT"> F  </i>
     <i name="WEIMIN">      0.00100000</i>
     <i name="EBREAK">      0.00000083</i>
     <i name="DEPER">      0.30000000</i>
     <i type="int" name="NRMM">     4</i>
     <i name="TIME">      0.40000000</i>
    </separator>
   </separator>
   <separator name="electronic mixer" >
    <i name="AMIX">      0.40000000</i>
    <i name="BMIX">      1.00000000</i>
    <i name="AMIN">      0.10000000</i>
    <i name="AMIX_MAG">      1.60000000</i>
    <i name="BMIX_MAG">      1.00000000</i>
    <separator name="electronic mixer details" >
     <i type="int" name="IMIX">     4</i>
     <i type="logical" name="MIXFIRST"> F  </i>
     <i type="int" name="MAXMIX">   -45</i>
     <i name="WC">    100.00000000</i>
     <i type="int" name="INIMIX">     1</i>
     <i type="int" name="MIXPRE">     1</i>
     <i type="int" name="MREMOVE">     5</i>
    </separator>
   </separator>
   <separator name="electronic dipolcorrection" >
    <i type="logical" name="LDIPOL"> F  </i>
    <i type="logical" name="LMONO"> F  </i>
    <i type="int" name="IDIPOL">     0</i>
    <i name="EPSILON">      1.00000000</i>
    <v name="DIPOL">   -100.00000000   -100.00000000   -100.00000000</v>
    <i name="EFIELD">      0.00000000</i>
   </separator>
  </separator>
  <separator name="grids" >
   <i type="int" name="NGX">    18</i>
   <i type="int" name="NGY">    14</i>
   <i type="int" name="NGZ">   120</i>
   <i type="int" name="NGXF">    36</i>
   <i type="int" name="NGYF">    28</i>
   <i type="int" name="NGZF">   240</i>
   <i type="logical" name="ADDGRID"> F  </i>
  </separator>
  <separator name="ionic" >
   <i type="int" name="NSW">   800</i>
   <i type="int" name="IBRION">     2</i>
   <i type="int" name="MDALGO">     0</i>
   <i type="int" name="ISIF">     2</i>
   <i name="PSTRESS">      0.00000000</i>
   <i name="EDIFFG">     -0.03000000</i>
   <i type="int" name="NFREE">     1</i>
   <i name="POTIM">      0.50000000</i>
   <i name="SMASS">     -3.00000000</i>
   <i name="SCALEE">      1.00000000</i>
  </separator>
  <separator name="ionic md" >
   <i name="TEBEG">      0.00010000</i>
   <i name="TEEND">      0.00010000</i>
   <i type="int" name="NBLOCK">     1</i>
   <i type="int" name="KBLOCK">   800</i>
   <i type="int" name="NPACO">   256</i>
   <i name="APACO">     10.00000000</i>
  </separator>
  <separator name="symmetry" >
   <i type="int" name="ISYM">     1</i>
   <i name="SYMPREC">      0.00001000</i>
  </separator>
  <separator name="dos" >
   <i type="int" name="LORBIT">     0</i>
   <v name="RWIGS">     -1.00000000     -1.00000000</v>
   <i type="int" name="NEDOS">   301</i>
   <i name="EMIN">     10.00000000</i>
   <i name="EMAX">    -10.00000000</i>
   <i name="EFERMI">      0.00000000</i>
  </separator>
  <separator name="writing" >
   <i type="int" name="NWRITE">     2</i>
   <i type="logical" name="LWAVE"> F  </i>
   <i type="logical" name="LDOWNSAMPLE"> F  </i>
   <i type="logical" name="LCHARG"> F  </i>
   <i type="logical" name="LPARD"> F  </i>
   <i type="logical" name="LVTOT"> F  </i>
   <i type="logical" name="LVHAR"> F  </i>
   <i type="logical" name="LELF"> F  </i>
   <i type="logical" name="LOPTICS"> F  </i>
   <v name="STM">      0.00000000      0.00000000      0.00000000      0.00000000      0.00000000      0.00000000      0.00000000</v>
  </separator>
  <separator name="performance" >
   <i type="int" name="NPAR">     4</i>
   <i type="int" name="NSIM">     4</i>
   <i type="int" name="NBLK">    -1</i>
   <i type="logical" name="LPLANE"> T  </i>
   <i type="logical" name="LSCALAPACK"> T  </i>
   <i type="logical" name="LSCAAWARE"> F  </i>
   <i type="logical" name="LSCALU"> F  </i>
   <i type="logical" name="LASYNC"> F  </i>
   <i type="logical" name="LORBITALREAL"> F  </i>
  </separator>
  <separator name="miscellaneous" >
   <i type="int" name="IDIOT">     3</i>
   <i type="int" name="PHON_NSTRUCT">    -1</i>
   <i type="logical" name="LMUSIC"> F  </i>
   <v name="POMASS">     63.54600000      1.00000000</v>
   <v name="DARWINR">      0.00000000      0.00000000</v>
   <v name="DARWINV">      1.00000000      1.00000000</v>
   <i type="logical" name="LCORR"> T  </i>
  </separator>
  <i type="logical" name="GGA_COMPAT"> T  </i>
  <i type="logical" name="LBERRY"> F  </i>
  <i type="int" name="ICORELEVEL">     0</i>
  <i type="logical" name="LDAU"> F  </i>
  <i type="int" name="I_CONSTRAINED_M">     0</i>
  <separator name="electronic exchange-correlation" >
   <i type="string" name="GGA">PE</i>
   <i type="int" name="VOSKOWN">     0</i>
   <i type="logical" name="LHFCALC"> F  </i>
   <i type="string" name="PRECFOCK"></i>
   <i type="logical" name="LSYMGRAD"> F  </i>
   <i type="logical" name="LHFONE"> F  </i>
   <i type="logical" name="LRHFCALC"> F  </i>
   <i type="logical" name="LTHOMAS"> F  </i>
   <i type="logical" name="LMODELHF"> F  </i>
   <i type="logical" name="LFOCKACE"> F  </i>
   <i name="ENCUT4O">     -1.00000000</i>
   <i type="int" name="EXXOEP">     0</i>
   <i type="int" name="FOURORBIT">     0</i>
   <i name="AEXX">      0.00000000</i>
   <i name="HFALPHA">      0.00000000</i>
   <i name="MCALPHA">      0.00000000</i>
   <i name="ALDAX">      1.00000000</i>
   <i name="AGGAX">      1.00000000</i>
   <i name="ALDAC">      1.00000000</i>
   <i name="AGGAC">      1.00000000</i>
   <i type="int" name="NKREDX">     1</i>
   <i type="int" name="NKREDY">     1</i>
   <i type="int" name="NKREDZ">     1</i>
   <i type="logical" name="SHIFTRED"> F  </i>
   <i type="logical" name="ODDONLY"> F  </i>
   <i type="logical" name="EVENONLY"> F  </i>
   <i type="int" name="LMAXFOCK">     0</i>
   <i type="int" name="NMAXFOCKAE">     0</i>
   <i type="logical" name="LFOCKAEDFT"> F  </i>
   <i name="HFSCREEN">      0.00000000</i>
   <i name="HFSCREENC">      0.00000000</i>
   <i type="int" name="NBANDSGWLOW">     0</i>
  </separator>
  <separator name="vdW DFT" >
   <i type="logical" name="LUSE_VDW"> F  </i>
   <i name="Zab_VDW">     -0.84910000</i>
   <i name="PARAM1">      0.12340000</i>
   <i name="PARAM2">      1.00000000</i>
   <i name="PARAM3">      0.00000000</i>
  </separator>
  <separator name="model GW" >
   <i type="int" name="MODEL_GW">     0</i>
   <i name="MODEL_EPS0">     13.40810411</i>
   <i name="MODEL_ALPHA">      1.00000000</i>
  </separator>
  <separator name="linear response parameters" >
   <i type="logical" name="LEPSILON"> F  </i>
   <i type="logical" name="LRPA"> F  </i>
   <i type="logical" name="LNABLA"> F  </i>
   <i type="logical" name="LVEL"> F  </i>
   <i name="CSHIFT">      0.10000000</i>
   <i name="OMEGAMAX">     -1.00000000</i>
   <i name="DEG_THRESHOLD">      0.00200000</i>
   <i name="RTIME">     -0.10000000</i>
   <i name="WPLASMAI">      0.00000000</i>
   <v name="DFIELD">      0.00000000      0.00000000      0.00000000</v>
   <v name="WPLASMA">      0.00000000      0.00000000      0.00000000      0.00000000      0.00000000      0.00000000      0.00000000      0.00000000      0.00000000</v>
  </separator>
  <separator name="orbital magnetization" >
   <i type="logical" name="NUCIND"> F  </i>
   <v name="MAGPOS">      0.00000000      0.00000000      0.00000000</v>
   <i type="logical" name="LNICSALL"> T  </i>
   <i type="logical" name="ORBITALMAG"> F  </i>
   <i type="logical" name="LMAGBLOCH"> F  </i>
   <i type="logical" name="LCHIMAG"> F  </i>
   <i type="logical" name="LGAUGE"> T  </i>
   <i type="int" name="MAGATOM">     0</i>
   <v name="MAGDIPOL">      0.00000000      0.00000000      0.00000000</v>
   <v name="AVECCONST">      0.00000000      0.00000000      0.00000000</v>
  </separator>
  <separator name="response functions" >
   <i type="logical" name="LFINITE_TEMPERATURE"> F  </i>
   <i type="logical" name="LADDER"> F  </i>
   <i type="logical" name="LRPAFORCE"> F  </i>
   <i type="logical" name="LFXC"> F  </i>
   <i type="logical" name="LHARTREE"> T  </i>
   <i type="int" name="IBSE">     0</i>
   <v type="int" name="KPOINT">    -1     0     0     0</v>
   <i type="logical" name="LTCTC"> F  </i>
   <i type="logical" name="LTCTE"> F  </i>
   <i type="logical" name="LTETE"> F  </i>
   <i type="logical" name="LTRIPLET"> F  </i>
   <i type="logical" name="LFXCEPS"> F  </i>
   <i type="logical" name="LFXHEG"> F  </i>
   <i type="int" name="NATURALO">     2</i>
   <i type="logical" name="LHOLEGF"> F  </i>
   <i type="logical" name="L2ORDER"> F  </i>
   <i type="logical" name="LDMP1"> F  </i>
   <i type="logical" name="LMP2LT"> F  </i>
   <i type="logical" name="LSMP2LT"> F  </i>
   <i type="logical" name="LGWLF"> F  </i>
   <i name="ENCUTGW">     -2.00000000</i>
   <i name="ENCUTGWSOFT">     -2.00000000</i>
   <i name="ENCUTLF">     -1.00000000</i>
   <i type="logical" name="LESF_SPLINES"> F  </i>
   <i type="int" name="LMAXMP2">    -1</i>
   <i name="SCISSOR">      0.00000000</i>
   <i type="int" name="NOMEGA">     0</i>
   <i type="int" name="NOMEGAR">     0</i>
   <i type="int" name="NBANDSGW">    -1</i>
   <i type="int" name="NBANDSO">    -1</i>
   <i type="int" name="NBANDSV">    -1</i>
   <i type="int" name="NELMGW">     1</i>
   <i type="int" name="NELMHF">     1</i>
   <i type="int" name="DIM">     3</i>
   <i type="int" name="IESPILON">     4</i>
   <i type="int" name="ANTIRES">     0</i>
   <i name="OMEGAMAX">    -30.00000000</i>
   <i name="OMEGAMIN">    -30.00000000</i>
   <i name="OMEGATL">   -200.00000000</i>
   <i type="int" name="OMEGAGRID">     0</i>
   <i name="CSHIFT">     -0.10000000</i>
   <i type="logical" name="LSELFENERGY"> F  </i>
   <i type="logical" name="LSPECTRAL"> F  </i>
   <i type="logical" name="LSPECTRALGW"> F  </i>
   <i type="logical" name="LSINGLES"> F  </i>
   <i type="logical" name="LFERMIGW"> F  </i>
   <i type="logical" name="ODDONLYGW"> F  </i>
   <i type="logical" name="EVENONLYGW"> F  </i>
   <i type="int" name="NKREDLFX">     1</i>
   <i type="int" name="NKREDLFY">     1</i>
   <i type="int" name="NKREDLFZ">     1</i>
   <i type="int" name="MAXMEM">  2800</i>
   <i type="int" name="TELESCOPE">     0</i>
   <i type="int" name="NTAUPAR">    -1</i>
   <i type="int" name="NOMEGAPAR">    -1</i>
   <i name="DAMP_NEWTON">      0.80000001</i>
   <i name="LAMBDA">      1.00000000</i>
  </separator>
  <separator name="External order field" >
   <i name="OFIELD_KAPPA">      0.00000000</i>
   <v name="OFIELD_K">      0.00000000      0.00000000      0.00000000</v>
   <i name="OFIELD_Q6_NEAR">      0.00000000</i>
   <i name="OFIELD_Q6_FAR">      0.00000000</i>
   <i name="OFIELD_A">      0.00000000</i>
  </separator>
  <separator name="optional k-points parameters" >
   <i type="int" name="KPOINTS_OPT_MODE">     1</i>
   <i type="logical" name="LKPOINTS_OPT"> F  </i>
  </separator>
 </parameters>
 <atominfo>
  <atoms>      10 </atoms>
  <types>       2 </types>
  <array name="atoms" >
   <dimension dim="1">ion</dimension>
   <field type="string">element</field>
   <field type="int">atomtype</field>
   <set>
    <rc><c>Cu</c><c>   1</c></rc>
    <rc><c>Cu</c><c>   1</c></rc>
    <rc><c>Cu</c><c>   1</c></rc>
    <rc><c>Cu</c><c>   1</c></rc>
    <rc><c>Cu</c><c>   1</c></rc>
    <rc><c>Cu</c><c>   1</c></rc>
    <rc><c>Cu</c><c>   1</c></rc>
    <rc><c>Cu</c><c>   1</c></rc>
    <rc><c>H </c><c>   2</c></rc>
    <rc><c>H </c><c>   2</c></rc>
   </set>
  </array>
  <array name="atomtypes" >
   <dimension dim="1">type</dimension>
   <field type="int">atomspertype</field>
   <field type="string">element</field>
   <field>mass</field>
   <field>valence</field>
   <field type="string">pseudopotential</field>
   <set>
    <rc><c>   8</c><c>Cu</c><c>     63.54600000</c><c>     11.00000000</c><c>  PAW_PBE Cu 22Jun2005                  </c></rc>
    <rc><c>   2</c><c>H </c><c>      1.00000000</c><c>      1.00000000</c><c>  PAW_PBE H 15Jun2001                   </c></rc>
   </set>
  </array>
 </atominfo>
 <structure name="initialpos" >
  <crystal>
   <varray name="basis" >
    <v>       3.63000011       0.00000000       0.00000000 </v>
    <v>       0.00000000       2.56679773       0.00000000 </v>
    <v>       0.00000000       0.00000000      23.98379135 </v>
   </varray>
   <i name="volume">    223.46840188 </i>
   <varray name="rec_basis" >
    <v>       0.27548208       0.00000000       0.00000000 </v>
    <v>       0.00000000       0.38959050       0.00000000 </v>
    <v>       0.00000000       0.00000000       0.04169483 </v>
   </varray>
  </crystal>
  <varray name="positions" >
   <v>       0.00000000       0.00000000       0.00000000 </v>
   <v>       0.50000000       0.50000000       0.05351109 </v>
   <v>       0.00000000       0.00000000       0.10468148 </v>
   <v>       0.50000000       0.50000000       0.15792996 </v>
   <v>       0.00000000       0.00000000       0.21070899 </v>
   <v>       0.50000000       0.50000000       0.26289048 </v>
   <v>       0.00000000       0.00000000       0.31711592 </v>
   <v>       0.50000000       0.50000000       0.36467590 </v>
   <v>       0.50000000       0.00000000       0.42690792 </v>
   <v>       0.50000000       0.20550963       0.44890201 </v>
  </varray>
 </structure>
 <calculation>
  <scstep>
   <time name="dav">    0.32    0.32</time>
   <time name="total">    0.34    0.35</time>
   <energy>
    <i name="alphaZ">    216.17040255 </i>
    <i name="ewald">  42301.25362179 </i>
    <i name="hartreedc"> -53122.29932780 </i>
    <i name="XCdc">    371.50438816 </i>
    <i name="pawpsdc">   9828.36862813 </i>
    <i name="pawaedc"> -10674.97285505 </i>
    <i name="eentropy">     -0.01174278 </i>
    <i name="bandstr">    700.31534710 </i>
    <i name="atom">  11152.61838693 </i>
    <i name="e_fr_energy">    772.94684902 </i>
    <i name="e_wo_entrp">    772.95859180 </i>
    <i name="e_0_energy">    772.95076328 </i>
   </energy>
  </scstep>
  <scstep>
   <time name="dav">    0.30    0.31</time>
   <time name="total">    0.31    0.31</time>
   <energy>
    <i name="e_fr_energy">     58.53495726 </i>
    <i name="e_wo_entrp">     58.53630236 </i>
    <i name="e_0_energy">     58.53540563 </i>
   </energy>
  </scstep>
  <scstep>
   <time name="dav">    0.31    0.32</time>
   <time name="total">    0.32    0.32</time>
   <energy>
    <i name="e_fr_energy">    -31.61953395 </i>
    <i name="e_wo_entrp">    -31.62785459 </i>
    <i name="e_0_energy">    -31.62230750 </i>
   </energy>
  </scstep>
  <scstep>
   <time name="dav">    0.35    0.35</time>
   <time name="total">    0.35    0.36</time>
   <energy>
    <i name="e_fr_energy">    -35.41840095 </i>
    <i name="e_wo_entrp">    -35.42636029 </i>
    <i name="e_0_energy">    -35.42105406 </i>
   </energy>
  </scstep>
  <scstep>
   <time name="dav">    0.35    0.35</time>
   <time name="total">    0.41    0.41</time>
   <energy>
    <i name="e_fr_energy">    -35.50629080 </i>
    <i name="e_wo_entrp">    -35.51420629 </i>
    <i name="e_0_energy">    -35.50892929 </i>
   </energy>
  </scstep>
  <scstep>
   <time name="dav">    0.34    0.34</time>
   <time name="total">    0.41    0.42</time>
   <energy>
    <i name="e_fr_energy">    -28.37895959 </i>
    <i name="e_wo_entrp">    -28.38035510 </i>
    <i name="e_0_energy">    -28.37942476 </i>
   </energy>
  </scstep>
  <scstep>
   <time name="dav">    0.35    0.35</time>
   <time name="total">    0.42    0.42</time>
   <energy>
    <i name="e_fr_energy">    -26.09158556 </i>
    <i name="e_wo_entrp">    -26.08743746 </i>
    <i name="e_0_energy">    -26.09020286 </i>
   </energy>
  </scstep>
  <scstep>
   <time name="dav">    0.38    0.38</time>
   <time name="total">    0.45    0.46</time>
   <energy>
    <i name="e_fr_energy">    -25.73544056 </i>
    <i name="e_wo_entrp">    -25.72835849 </i>
    <i name="e_0_energy">    -25.73307987 </i>
   </energy>
  </scstep>
  <scstep>
   <time name="dav">    0.45    0.45</time>
   <time name="total">    0.52    0.53</time>
   <energy>
    <i name="e_fr_energy">    -25.64687185 </i>
    <i name="e_wo_entrp">    -25.64758752 </i>
    <i name="e_0_energy">    -25.64711040 </i>
   </energy>
  </scstep>
  <scstep>
   <time name="dav">    0.40    0.40</time>
   <time name="total">    0.48    0.48</time>
   <energy>
    <i name="e_fr_energy">    -26.31596561 </i>
    <i name="e_wo_entrp">    -26.31755269 </i>
    <i name="e_0_energy">    -26.31649464 </i>
   </energy>
  </scstep>
  <scstep>
   <time name="dav">    0.37    0.37</time>
   <time name="total">    0.45    0.45</time>
   <energy>
    <i name="e_fr_energy">    -28.01812029 </i>
    <i name="e_wo_entrp">    -28.01068136 </i>
    <i name="e_0_energy">    -28.01564065 </i>
   </energy>
  </scstep>
  <scstep>
   <time name="dav">    0.35    0.36</time>
   <time name="total">    0.43    0.43</time>
   <energy>
    <i name="e_fr_energy">    -29.45647797 </i>
    <i name="e_wo_entrp">    -29.43970418 </i>
    <i name="e_0_energy">    -29.45088671 </i>
   </energy>
  </scstep>
  <scstep>
   <time name="dav">    0.40    0.40</time>
   <time name="total">    0.47    0.47</time>
   <energy>
    <i name="e_fr_energy">    -32.12742955 </i>
    <i name="e_wo_entrp">    -32.11938136 </i>
    <i name="e_0_energy">    -32.12474682 </i>
   </energy>
  </scstep>
  <scstep>
   <time name="dav">    0.35    0.35</time>
   <time name="total">    0.42    0.43</time>
   <energy>
    <i name="e_fr_energy">    -33.65196120 </i>
    <i name="e_wo_entrp">    -33.63885324 </i>
    <i name="e_0_energy">    -33.64759188 </i>
   </energy>
  </scstep>
  <scstep>
   <time name="dav">    0.35    0.35</time>
   <time name="total">    0.42    0.43</time>
   <energy>
    <i name="e_fr_energy">    -34.27188060 </i>
    <i name="e_wo_entrp">    -34.26476790 </i>
    <i name="e_0_energy">    -34.26950970 </i>
   </energy>
  </scstep>
  <scstep>
   <time name="dav">    0.33    0.33</time>
   <time name="total">    0.41    0.42</time>
   <energy>
    <i name="e_fr_energy">    -34.56363814 </i>
    <i name="e_wo_entrp">    -34.56491478 </i>
    <i name="e_0_energy">    -34.56406368 </i>
   </energy>
  </scstep>
  <scstep>
   <time name="dav">    0.36    0.36</time>
   <time name="total">    0.43    0.44</time>
   <energy>
    <i name="e_fr_energy">    -34.74879359 </i>
    <i name="e_wo_entrp">    -34.75453200 </i>
    <i name="e_0_energy">    -34.75070639 </i>
   </energy>
  </scstep>
  <scstep>
   <time name="dav">    0.35    0.35</time>
   <time name="total">    0.42    0.43</time>
   <energy>
    <i name="e_fr_energy">    -34.81883974 </i>
    <i name="e_wo_entrp">    -34.82618112 </i>
    <i name="e_0_energy">    -34.82128686 </i>
   </energy>
  </scstep>
  <scstep>
   <time name="dav">    0.32    0.32</time>
   <time name="total">    0.39    0.39</time>
   <energy>
    <i name="e_fr_energy">    -34.88122374 </i>
    <i name="e_wo_entrp">    -34.88949486 </i>
    <i name="e_0_energy">    -34.88398078 </i>
   </energy>
  </scstep>
  <scstep>
   <time name="dav">    0.34    0.35</time>
   <time name="total">    0.42    0.42</time>
   <energy>
    <i name="e_fr_energy">    -34.92103113 </i>
    <i name="e_wo_entrp">    -34.92845095 </i>
    <i name="e_0_energy">    -34.92350441 </i>
   </energy>
  </scstep>
  <scstep>
   <time name="dav">    0.34    0.34</time>
   <time name="total">    0.41    0.42</time>
   <energy>
    <i name="e_fr_energy">    -34.96066243 </i>
    <i name="e_wo_entrp">    -34.96819210 </i>
    <i name="e_0_energy">    -34.96317232 </i>
   </energy>
  </scstep>
  <scstep>
   <time name="dav">    0.33    0.34</time>
   <time name="total">    0.41    0.41</time>
   <energy>
    <i name="e_fr_energy">    -35.00031075 </i>
    <i name="e_wo_entrp">    -35.00788160 </i>
    <i name="e_0_energy">    -35.00283436 </i>
   </energy>
  </scstep>
  <scstep>
   <time name="dav">    0.32    0.32</time>
   <time name="total">    0.39    0.40</time>
   <energy>
    <i name="e_fr_energy">    -35.03718201 </i>
    <i name="e_wo_entrp">    -35.04437395 </i>
    <i name="e_0_energy">    -35.03957933 </i>
   </energy>
  </scstep>
  <scstep>
   <time name="dav">    0.29    0.29</time>
   <time name="total">    0.37    0.37</time>
   <energy>
    <i name="e_fr_energy">    -35.07342937 </i>
    <i name="e_wo_entrp">    -35.08030154 </i>
    <i name="e_0_energy">    -35.07572009 </i>
   </energy>
  </scstep>
  <scstep>
   <time name="dav">    0.28    0.28</time>
   <time name="total">    0.35    0.36</time>
   <energy>
    <i name="e_fr_energy">    -35.09545958 </i>
    <i name="e_wo_entrp">    -35.10232125 </i>
    <i name="e_0_energy">    -35.09774680 </i>
   </energy>
  </scstep>
  <scstep>
   <time name="dav">    0.27    0.27</time>
   <time name="total">    0.35    0.36</time>
   <energy>
    <i name="e_fr_energy">    -35.10342663 </i>
    <i name="e_wo_entrp">    -35.11005274 </i>
    <i name="e_0_energy">    -35.10563533 </i>
   </energy>
  </scstep>
  <scstep>
   <time name="dav">    0.26    0.26</time>
   <time name="total">    0.33    0.34</time>
   <energy>
    <i name="e_fr_energy">    -35.10447996 </i>
    <i name="e_wo_entrp">    -35.11106370 </i>
    <i name="e_0_energy">    -35.10667454 </i>
   </energy>
  </scstep>
  <scstep>
   <time name="dav">    0.25    0.25</time>
   <time name="total">    0.27    0.28</time>
   <energy>
    <i name="alphaZ">    216.17040255 </i>
    <i name="ewald">  42301.25362179 </i>
    <i name="hartreedc"> -53052.88876648 </i>
    <i name="XCdc">    362.32432868 </i>
    <i name="pawpsdc">  10514.85511659 </i>
    <i name="pawaedc"> -11376.60782376 </i>
    <i name="eentropy">      0.00659295 </i>
    <i name="bandstr">   -152.83648490 </i>
    <i name="atom">  11152.61838693 </i>
    <i name="e_fr_energy">    -35.10462565 </i>
    <i name="e_wo_entrp">    -35.11121860 </i>
    <i name="e_0_energy">    -35.10682330 </i>
   </energy>
  </scstep>
  <structure>
   <crystal>
    <varray name="basis" >
     <v>       3.63000011       0.00000000       0.00000000 </v>
     <v>       0.00000000       2.56679773       0.00000000 </v>
     <v>       0.00000000       0.00000000      23.98379135 </v>
    </varray>
    <i name="volume">    223.46840188 </i>
    <varray name="rec_basis" >
     <v>       0.27548208       0.00000000       0.00000000 </v>
     <v>       0.00000000       0.38959050       0.00000000 </v>
     <v>       0.00000000       0.00000000       0.04169483 </v>
    </varray>
   </crystal>
   <varray name="positions" >
    <v>       0.00000000       0.00000000       0.00000000 </v>
    <v>       0.50000000       0.50000000       0.05351109 </v>
    <v>       0.00000000       0.00000000       0.10468148 </v>
    <v>       0.50000000       0.50000000       0.15792996 </v>
    <v>       0.00000000       0.00000000       0.21070899 </v>
    <v>       0.50000000       0.50000000       0.26289048 </v>
    <v>       0.00000000       0.00000000       0.31711592 </v>
    <v>       0.50000000       0.50000000       0.36467590 </v>
    <v>       0.50000000       0.00000000       0.42690792 </v>
    <v>       0.50000000       0.20550963       0.44890201 </v>
   </varray>
  </structure>
  <varray name="forces" >
   <v>       0.00000000      -0.00015348       0.54695004 </v>
   <v>       0.00000000      -0.00013339      -0.51058448 </v>
   <v>       0.00000000       0.00161546       0.01557819 </v>
   <v>       0.00000000      -0.00268700       0.12227999 </v>
   <v>       0.00000000      -0.00076730      -0.23498604 </v>
   <v>       0.00000000       0.01509204       0.10152265 </v>
   <v>       0.00000000      -0.03567460      -0.08156369 </v>
   <v>       0.00000000      -0.32983703      -0.46441964 </v>
   <v>       0.00000000      -0.60135034      -0.66857537 </v>
   <v>       0.00000000       0.95389565       1.17379837 </v>
  </varray>
  <varray name="stress" >
   <v>     -38.63847610       0.00000000       0.00000000 </v>
   <v>       0.00000000     -27.55141843       7.36128603 </v>
   <v>       0.00000000       7.36128600      -1.70238171 </v>
  </varray>
  <energy>
   <i name="e_fr_energy">    -38.30168179 </i>
   <i name="e_wo_entrp">    -38.30827475 </i>
   <i name="e_0_energy">    -38.30387944 </i>
  </energy>
  <time name="totalsc">   11.66   11.78</time>
 </calculation>
 <calculation>
  <scstep>
   <time name="dav">    0.31    0.32</time>
   <time name="total">    0.39    0.39</time>
   <energy>
    <i name="alphaZ">    216.17040255 </i>
    <i name="ewald">  42439.37670972 </i>
    <i name="hartreedc"> -53192.41111635 </i>
    <i name="XCdc">    362.29510276 </i>
    <i name="pawpsdc">  10514.78973535 </i>
    <i name="pawaedc"> -11376.53825298 </i>
    <i name="eentropy">      0.00664982 </i>
    <i name="bandstr">   -151.40214388 </i>
    <i name="atom">  11152.61838693 </i>
    <i name="e_fr_energy">    -35.09452608 </i>
    <i name="e_wo_entrp">    -35.10117590 </i>
    <i name="e_0_energy">    -35.09674269 </i>
   </energy>
  </scstep>
  <scstep>
   <time name="dav">    0.40    0.40</time>
   <time name="total">    0.47    0.48</time>
   <energy>
    <i name="e_fr_energy">    -35.11833350 </i>
    <i name="e_wo_entrp">    -35.12396666 </i>
    <i name="e_0_energy">    -35.12021122 </i>
   </energy>
  </scstep>
  <scstep>
   <time name="dav">    0.35    0.35</time>
   <time name="total">    0.42    0.42</time>
   <energy>
    <i name="e_fr_energy">    -35.11438046 </i>
    <i name="e_wo_entrp">    -35.12215258 </i>
    <i name="e_0_energy">    -35.11697117 </i>
   </energy>
  </scstep>
  <scstep>
   <time name="dav">    0.34    0.35</time>
   <time name="total">    0.42    0.42</time>
   <energy>
    <i name="e_fr_energy">    -35.11203469 </i>
    <i name="e_wo_entrp">    -35.11847162 </i>
    <i name="e_0_energy">    -35.11418033 </i>
   </energy>
  </scstep>
  <scstep>
   <time name="dav">    0.44    0.44</time>
   <time name="total">    0.51    0.51</time>
   <energy>
    <i name="e_fr_energy">    -35.11177063 </i>
    <i name="e_wo_entrp">    -35.11926550 </i>
    <i name="e_0_energy">    -35.11426892 </i>
   </energy>
  </scstep>
  <scstep>
   <time name="dav">    0.37    0.37</time>
   <time name="total">    0.44    0.44</time>
   <energy>
    <i name="e_fr_energy">    -35.11147024 </i>
    <i name="e_wo_entrp">    -35.11913199 </i>
    <i name="e_0_energy">    -35.11402415 </i>
   </energy>
  </scstep>
  <scstep>
   <time name="dav">    0.29    0.29</time>
   <time name="total">    0.31    0.32</time>
   <energy>
    <i name="alphaZ">    216.17040255 </i>
    <i name="ewald">  42439.37670972 </i>
    <i name="hartreedc"> -53185.26408987 </i>
    <i name="XCdc">    362.13119143 </i>
    <i name="pawpsdc">  10516.41112864 </i>
    <i name="pawaedc"> -11378.26511135 </i>
    <i name="eentropy">      0.00754804 </i>
    <i name="bandstr">   -158.29763702 </i>
    <i name="atom">  11152.61838693 </i>
    <i name="e_fr_energy">    -35.11147094 </i>
    <i name="e_wo_entrp">    -35.11901898 </i>
    <i name="e_0_energy">    -35.11398695 </i>
   </energy>
  </scstep>
  <structure>
   <crystal>
    <varray name="basis" >
     <v>       3.63000011       0.00000000       0.00000000 </v>
     <v>       0.00000000       2.56679773       0.00000000 </v>
     <v>       0.00000000       0.00000000      23.98379135 </v>
    </varray>
    <i name="volume">    223.46840188 </i>
    <varray name="rec_basis" >
     <v>       0.27548208       0.00000000       0.00000000 </v>
     <v>       0.00000000       0.38959050       0.00000000 </v>
     <v>       0.00000000       0.00000000       0.04169483 </v>
    </varray>
   </crystal>
   <varray name="positions" >
    <v>       0.00000000      -0.00000288       0.00110017 </v>
    <v>       0.50000000       0.49999749       0.05248407 </v>
    <v>       0.00000000       0.00003036       0.10471281 </v>
    <v>       0.50000000       0.49994950       0.15817592 </v>
    <v>       0.00000000      -0.00001442       0.21023632 </v>
    <v>       0.50000000       0.50028365       0.26309469 </v>
    <v>       0.00000000      -0.00067050       0.31695185 </v>
    <v>       0.50000000       0.49380075       0.36374174 </v>
    <v>       0.50000000      -0.01130231       0.42556310 </v>
    <v>       0.50000000       0.22343799       0.45126307 </v>
   </varray>
  </structure>
  <varray name="forces" >
   <v>       0.00000000      -0.00205385       0.36381731 </v>
   <v>       0.00000000      -0.00172040      -0.28665312 </v>
   <v>       0.00000000      -0.00072259       0.02252509 </v>
   <v>       0.00000000      -0.00361804       0.00737514 </v>
   <v>       0.00000000      -0.00126609      -0.13699955 </v>
   <v>       0.00000000       0.01031767      -0.05162075 </v>
   <v>       0.00000000      -0.06885996      -0.13533498 </v>
   <v>       0.00000000      -0.28404674      -0.06769179 </v>
   <v>       0.00000000       0.89865578       0.73838232 </v>
   <v>       0.00000000      -0.54668579      -0.45379967 </v>
  </varray>
  <varray name="stress" >
   <v>     -37.12582792       0.00000000       0.00000000 </v>
   <v>       0.00000000     -34.07802695       1.65287189 </v>
   <v>       0.00000000       1.65287190      -7.68322579 </v>
  </varray>
  <energy>
   <i name="e_fr_energy">    -38.33404631 </i>
   <i name="e_wo_entrp">    -38.34159435 </i>
   <i name="e_0_energy">    -38.33656232 </i>
  </energy>
  <time name="totalsc">    3.45    3.51</time>
 </calculation>
 <calculation>
  <scstep>
   <time name="dav">    0.32    0.32</time>
   <time name="total">    0.39    0.40</time>
   <energy>
    <i name="alphaZ">    216.17040255 </i>
    <i name="ewald">  42379.97226797 </i>
    <i name="hartreedc"> -53125.22718273 </i>
    <i name="XCdc">    362.14212572 </i>
    <i name="pawpsdc">  10516.61652605 </i>
    <i name="pawaedc"> -11378.47487266 </i>
    <i name="eentropy">      0.00786179 </i>
    <i name="bandstr">   -158.96927592 </i>
    <i name="atom">  11152.61838693 </i>
    <i name="e_fr_energy">    -35.14376031 </i>
    <i name="e_wo_entrp">    -35.15162210 </i>
    <i name="e_0_energy">    -35.14638091 </i>
   </energy>
  </scstep>
  <scstep>
   <time name="dav">    0.39    0.40</time>
   <time name="total">    0.47    0.47</time>
   <energy>
    <i name="e_fr_energy">    -35.14831437 </i>
    <i name="e_wo_entrp">    -35.15630798 </i>
    <i name="e_0_energy">    -35.15097891 </i>
   </energy>
  </scstep>
  <scstep>
   <time name="dav">    0.33    0.34</time>
   <time name="total">    0.41    0.41</time>
   <energy>
    <i name="e_fr_energy">    -35.14799205 </i>
    <i name="e_wo_entrp">    -35.15524461 </i>
    <i name="e_0_energy">    -35.15040957 </i>
   </energy>
  </scstep>
  <scstep>
   <time name="dav">    0.32    0.33</time>
   <time name="total">    0.40    0.40</time>
   <energy>
    <i name="e_fr_energy">    -35.14761197 </i>
    <i name="e_wo_entrp">    -35.15516221 </i>
    <i name="e_0_energy">    -35.15012872 </i>
   </energy>
  </scstep>
  <scstep>
   <time name="dav">    0.29    0.29</time>
   <time name="total">    0.36    0.37</time>
   <energy>
    <i name="e_fr_energy">    -35.14763423 </i>
    <i name="e_wo_entrp">    -35.15502914 </i>
    <i name="e_0_energy">    -35.15009920 </i>
   </energy>
  </scstep>
  <scstep>
   <time name="dav">    0.24    0.24</time>
   <time name="total">    0.26    0.26</time>
   <energy>
    <i name="alphaZ">    216.17040255 </i>
    <i name="ewald">  42379.97226797 </i>
    <i name="hartreedc"> -53127.78817884 </i>
    <i name="XCdc">    362.20615147 </i>
    <i name="pawpsdc">  10516.00719503 </i>
    <i name="pawaedc"> -11377.83492278 </i>
    <i name="eentropy">      0.00740011 </i>
    <i name="bandstr">   -156.50622770 </i>
    <i name="atom">  11152.61838693 </i>
    <i name="e_fr_energy">    -35.14752527 </i>
    <i name="e_wo_entrp">    -35.15492538 </i>
    <i name="e_0_energy">    -35.14999197 </i>
   </energy>
  </scstep>
  <structure>
   <crystal>
    <varray name="basis" >
     <v>       3.63000011       0.00000000       0.00000000 </v>
     <v>       0.00000000       2.56679773       0.00000000 </v>
     <v>       0.00000000       0.00000000      23.98379135 </v>
    </varray>
    <i name="volume">    223.46840188 </i>
    <varray name="rec_basis" >
     <v>       0.27548208       0.00000000       0.00000000 </v>
     <v>       0.00000000       0.38959050       0.00000000 </v>
     <v>       0.00000000       0.00000000       0.04169483 </v>
    </varray>
   </crystal>
   <varray name="positions" >
    <v>       0.00000000      -0.00000165       0.00062809 </v>
    <v>       0.50000000       0.49999857       0.05292476 </v>
    <v>       0.00000000       0.00001733       0.10469937 </v>
    <v>       0.50000000       0.49997117       0.15807038 </v>
    <v>       0.00000000      -0.00000823       0.21043915 </v>
    <v>       0.50000000       0.50016194       0.26300706 </v>
    <v>       0.00000000      -0.00038279       0.31702225 </v>
    <v>       0.50000000       0.49646085       0.36414259 </v>
    <v>       0.50000000      -0.00645248       0.42614016 </v>
    <v>       0.50000000       0.21574492       0.45024994 </v>
   </varray>
  </structure>
  <varray name="forces" >
   <v>       0.00000000       0.00049708       0.47823612 </v>
   <v>       0.00000000       0.00103853      -0.42113461 </v>
   <v>       0.00000000       0.00221506       0.02524979 </v>
   <v>       0.00000000      -0.00196891       0.07771954 </v>
   <v>       0.00000000       0.00084751      -0.19655596 </v>
   <v>       0.00000000       0.01544858       0.03881534 </v>
   <v>       0.00000000      -0.05330897      -0.11240408 </v>
   <v>       0.00000000      -0.32495135      -0.26256382 </v>
   <v>       0.00000000       0.52810645       0.38938274 </v>
   <v>       0.00000000      -0.16792398      -0.01674506 </v>
  </varray>
  <varray name="stress" >
   <v>     -36.85854661       0.00000000       0.00000000 </v>
   <v>       0.00000000     -31.37471417       3.24378054 </v>
   <v>       0.00000000       3.24378040      -5.23843549 </v>
  </varray>
  <energy>
   <i name="e_fr_energy">    -38.35138689 </i>
   <i name="e_wo_entrp">    -38.35878700 </i>
   <i name="e_0_energy">    -38.35385359 </i>
  </energy>
  <time name="totalsc">    2.78    2.84</time>
 </calculation>
 <calculation>
  <scstep>
   <time name="dav">    0.32    0.32</time>
   <time name="total">    0.39    0.40</time>
   <energy>
    <i name="alphaZ">    216.17040255 </i>
    <i name="ewald">  42512.50559345 </i>
    <i name="hartreedc"> -53260.15835218 </i>
    <i name="XCdc">    362.26653117 </i>
    <i name="pawpsdc">  10516.00852252 </i>
    <i name="pawaedc"> -11377.84042168 </i>
    <i name="eentropy">      0.00830956 </i>
    <i name="bandstr">   -156.74121189 </i>
    <i name="atom">  11152.61838693 </i>
    <i name="e_fr_energy">    -35.16223956 </i>
    <i name="e_wo_entrp">    -35.17054912 </i>
    <i name="e_0_energy">    -35.16500941 </i>
   </energy>
  </scstep>
  <scstep>
   <time name="dav">    0.39    0.40</time>
   <time name="total">    0.47    0.47</time>
   <energy>
    <i name="e_fr_energy">    -35.18609256 </i>
    <i name="e_wo_entrp">    -35.19415275 </i>
    <i name="e_0_energy">    -35.18877929 </i>
   </energy>
  </scstep>
  <scstep>
   <time name="dav">    0.33    0.33</time>
   <time name="total">    0.40    0.40</time>
   <energy>
    <i name="e_fr_energy">    -35.18443929 </i>
    <i name="e_wo_entrp">    -35.19299461 </i>
    <i name="e_0_energy">    -35.18729106 </i>
   </energy>
  </scstep>
  <scstep>
   <time name="dav">    0.35    0.36</time>
   <time name="total">    0.42    0.43</time>
   <energy>
    <i name="e_fr_energy">    -35.18425772 </i>
    <i name="e_wo_entrp">    -35.19273458 </i>
    <i name="e_0_energy">    -35.18708334 </i>
   </energy>
  </scstep>
  <scstep>
   <time name="dav">    0.32    0.32</time>
   <time name="total">    0.39    0.39</time>
   <energy>
    <i name="e_fr_energy">    -35.18393751 </i>
    <i name="e_wo_entrp">    -35.19233235 </i>
    <i name="e_0_energy">    -35.18673579 </i>
   </energy>
  </scstep>
  <scstep>
   <time name="dav">    0.35    0.35</time>
   <time name="total">    0.42    0.42</time>
   <energy>
    <i name="e_fr_energy">    -35.18364261 </i>
    <i name="e_wo_entrp">    -35.19242715 </i>
    <i name="e_0_energy">    -35.18657079 </i>
   </energy>
  </scstep>
  <scstep>
   <time name="dav">    0.26    0.26</time>
   <time name="total">    0.28    0.29</time>
   <energy>
    <i name="alphaZ">    216.17040255 </i>
    <i name="ewald">  42512.50559345 </i>
    <i name="hartreedc"> -53259.56774014 </i>
    <i name="XCdc">    362.25304789 </i>
    <i name="pawpsdc">  10524.33971477 </i>
    <i name="pawaedc"> -11386.35989915 </i>
    <i name="eentropy">      0.00864616 </i>
    <i name="bandstr">   -157.15180242 </i>
    <i name="atom">  11152.61838693 </i>
    <i name="e_fr_energy">    -35.18364996 </i>
    <i name="e_wo_entrp">    -35.19229612 </i>
    <i name="e_0_energy">    -35.18653202 </i>
   </energy>
  </scstep>
  <structure>
   <crystal>
    <varray name="basis" >
     <v>       3.63000011       0.00000000       0.00000000 </v>
     <v>       0.00000000       2.56679773       0.00000000 </v>
     <v>       0.00000000       0.00000000      23.98379135 </v>
    </varray>
    <i name="volume">    223.46840188 </i>
    <varray name="rec_basis" >
     <v>       0.27548208       0.00000000       0.00000000 </v>
     <v>       0.00000000       0.38959050       0.00000000 </v>
     <v>       0.00000000       0.00000000       0.04169483 </v>
    </varray>
   </crystal>
   <varray name="positions" >
    <v>       0.00000000       0.00000619       0.00177510 </v>
    <v>       0.50000000       0.50001580       0.05190054 </v>
    <v>       0.00000000       0.00006278       0.10475342 </v>
    <v>       0.50000000       0.49992505       0.15827312 </v>
    <v>       0.00000000       0.00000282       0.20996273 </v>
    <v>       0.50000000       0.50049637       0.26312811 </v>
    <v>       0.00000000      -0.00146183       0.31677565 </v>
    <v>       0.50000000       0.48936963       0.36343254 </v>
    <v>       0.50000000      -0.00012785       0.42652906 </v>
    <v>       0.50000000       0.21722067       0.45079346 </v>
   </varray>
  </structure>
  <varray name="forces" >
   <v>       0.00000000      -0.00048410       0.28381983 </v>
   <v>       0.00000000      -0.00033115      -0.18538931 </v>
   <v>       0.00000000       0.00028831       0.03247787 </v>
   <v>       0.00000000      -0.00128861      -0.03254701 </v>
   <v>       0.00000000       0.00071042      -0.10972851 </v>
   <v>       0.00000000       0.00865026      -0.08893715 </v>
   <v>       0.00000000      -0.08710497      -0.12059968 </v>
   <v>       0.00000000      -0.24060854      -0.11479827 </v>
   <v>       0.00000000       0.45580175       0.34158871 </v>
   <v>       0.00000000      -0.13563337      -0.00588647 </v>
  </varray>
  <varray name="stress" >
   <v>     -35.88198991       0.00000000       0.00000000 </v>
   <v>       0.00000000     -31.39860789       3.29881398 </v>
   <v>       0.00000000       3.29881411      -3.74748515 </v>
  </varray>
  <energy>
   <i name="e_fr_energy">    -38.38985639 </i>
   <i name="e_wo_entrp">    -38.39850255 </i>
   <i name="e_0_energy">    -38.39273845 </i>
  </energy>
  <time name="totalsc">    3.26    3.36</time>
 </calculation>
 <calculation>
  <scstep>
   <time name="dav">    0.32    0.32</time>
   <time name="total">    0.39    0.39</time>
   <energy>
    <i name="alphaZ">    216.17040255 </i>
    <i name="ewald">  42733.56616071 </i>
    <i name="hartreedc"> -53480.18265451 </i>
    <i name="XCdc">    362.36678428 </i>
    <i name="pawpsdc">  10524.37038366 </i>
    <i name="pawaedc"> -11386.38771758 </i>
    <i name="eentropy">      0.00875586 </i>
    <i name="bandstr">   -157.67401408 </i>
    <i name="atom">  11152.61838693 </i>
    <i name="e_fr_energy">    -35.14351219 </i>
    <i name="e_wo_entrp">    -35.15226805 </i>
    <i name="e_0_energy">    -35.14643081 </i>
   </energy>
  </scstep>
  <scstep>
   <time name="dav">    0.42    0.42</time>
   <time name="total">    0.49    0.50</time>
   <energy>
    <i name="e_fr_energy">    -35.21511779 </i>
    <i name="e_wo_entrp">    -35.22344880 </i>
    <i name="e_0_energy">    -35.21789479 </i>
   </energy>
  </scstep>
  <scstep>
   <time name="dav">    0.33    0.33</time>
   <time name="total">    0.40    0.41</time>
   <energy>
    <i name="e_fr_energy">    -35.21019264 </i>
    <i name="e_wo_entrp">    -35.21926302 </i>
    <i name="e_0_energy">    -35.21321610 </i>
   </energy>
  </scstep>
  <scstep>
   <time name="dav">    0.35    0.35</time>
   <time name="total">    0.42    0.42</time>
   <energy>
    <i name="e_fr_energy">    -35.20971979 </i>
    <i name="e_wo_entrp">    -35.21876987 </i>
    <i name="e_0_energy">    -35.21273648 </i>
   </energy>
  </scstep>
  <scstep>
   <time name="dav">    0.35    0.35</time>
   <time name="total">    0.42    0.42</time>
   <energy>
    <i name="e_fr_energy">    -35.20901870 </i>
    <i name="e_wo_entrp">    -35.21794415 </i>
    <i name="e_0_energy">    -35.21199385 </i>
   </energy>
  </scstep>
  <scstep>
   <time name="dav">    0.43    0.44</time>
   <time name="total">    0.51    0.51</time>
   <energy>
    <i name="e_fr_energy">    -35.20821456 </i>
    <i name="e_wo_entrp">    -35.21770038 </i>
    <i name="e_0_energy">    -35.21137650 </i>
   </energy>
  </scstep>
  <scstep>
   <time name="dav">    0.32    0.32</time>
   <time name="total">    0.34    0.34</time>
   <energy>
    <i name="alphaZ">    216.17040255 </i>
    <i name="ewald">  42733.56616071 </i>
    <i name="hartreedc"> -53478.91192510 </i>
    <i name="XCdc">    362.33584438 </i>
    <i name="pawpsdc">  10541.51037038 </i>
    <i name="pawaedc"> -11403.84318999 </i>
    <i name="eentropy">      0.00931231 </i>
    <i name="bandstr">   -158.66359000 </i>
    <i name="atom">  11152.61838693 </i>
    <i name="e_fr_energy">    -35.20822784 </i>
    <i name="e_wo_entrp">    -35.21754014 </i>
    <i name="e_0_energy">    -35.21133194 </i>
   </energy>
  </scstep>
  <structure>
   <crystal>
    <varray name="basis" >
     <v>       3.63000011       0.00000000       0.00000000 </v>
     <v>       0.00000000       2.56679773       0.00000000 </v>
     <v>       0.00000000       0.00000000      23.98379135 </v>
    </varray>
    <i name="volume">    223.46840188 </i>
    <varray name="rec_basis" >
     <v>       0.27548208       0.00000000       0.00000000 </v>
     <v>       0.00000000       0.38959050       0.00000000 </v>
     <v>       0.00000000       0.00000000       0.04169483 </v>
    </varray>
   </crystal>
   <varray name="positions" >
    <v>       0.00000000       0.00001927       0.00368879 </v>
    <v>       0.50000000       0.50004456       0.05019172 </v>
    <v>       0.00000000       0.00013860       0.10484360 </v>
    <v>       0.50000000       0.49984812       0.15861138 </v>
    <v>       0.00000000       0.00002126       0.20916789 </v>
    <v>       0.50000000       0.50105434       0.26333007 </v>
    <v>       0.00000000      -0.00326213       0.31636422 </v>
    <v>       0.50000000       0.47753856       0.36224789 </v>
    <v>       0.50000000       0.01042424       0.42717789 </v>
    <v>       0.50000000       0.21968281       0.45170029 </v>
   </varray>
  </structure>
  <varray name="forces" >
   <v>       0.00000000      -0.00095524      -0.04004845 </v>
   <v>       0.00000000      -0.00073619       0.14316936 </v>
   <v>       0.00000000      -0.00145163       0.06098352 </v>
   <v>       0.00000000       0.00014177      -0.17634744 </v>
   <v>       0.00000000       0.00189839       0.03586940 </v>
   <v>       0.00000000       0.00254503      -0.28639058 </v>
   <v>       0.00000000      -0.14048732      -0.13331109 </v>
   <v>       0.00000000      -0.12445034       0.11842386 </v>
   <v>       0.00000000       0.33601411       0.25575449 </v>
   <v>       0.00000000      -0.07251858       0.02189693 </v>
  </varray>
  <varray name="stress" >
   <v>     -31.77515465       0.00000000       0.00000000 </v>
   <v>       0.00000000     -29.44877130       3.45370824 </v>
   <v>       0.00000000       3.45370810       1.64459346 </v>
  </varray>
  <energy>
   <i name="e_fr_energy">    -38.41866134 </i>
   <i name="e_wo_entrp">    -38.42797365 </i>
   <i name="e_0_energy">    -38.42176544 </i>
  </energy>
  <time name="totalsc">    3.45    3.51</time>
 </calculation>
 <calculation>
  <scstep>
   <time name="dav">    0.31    0.31</time>
   <time name="total">    0.38    0.38</time>
   <energy>
    <i name="alphaZ">    216.17040255 </i>
    <i name="ewald">  42800.36316818 </i>
    <i name="hartreedc"> -53545.38797384 </i>
    <i name="XCdc">    362.35257057 </i>
    <i name="pawpsdc">  10541.55871751 </i>
    <i name="pawaedc"> -11403.89269337 </i>
    <i name="eentropy">      0.00867697 </i>
    <i name="bandstr">   -159.00553523 </i>
    <i name="atom">  11152.61838693 </i>
    <i name="e_fr_energy">    -35.21427974 </i>
    <i name="e_wo_entrp">    -35.22295670 </i>
    <i name="e_0_energy">    -35.21717206 </i>
   </energy>
  </scstep>
  <scstep>
   <time name="dav">    0.39    0.39</time>
   <time name="total">    0.46    0.47</time>
   <energy>
    <i name="e_fr_energy">    -35.22199704 </i>
    <i name="e_wo_entrp">    -35.23110700 </i>
    <i name="e_0_energy">    -35.22503370 </i>
   </energy>
  </scstep>
  <scstep>
   <time name="dav">    0.33    0.33</time>
   <time name="total">    0.40    0.41</time>
   <energy>
    <i name="e_fr_energy">    -35.22173381 </i>
    <i name="e_wo_entrp">    -35.23062698 </i>
    <i name="e_0_energy">    -35.22469820 </i>
   </energy>
  </scstep>
  <scstep>
   <time name="dav">    0.32    0.32</time>
   <time name="total">    0.39    0.39</time>
   <energy>
    <i name="e_fr_energy">    -35.22149602 </i>
    <i name="e_wo_entrp">    -35.23060975 </i>
    <i name="e_0_energy">    -35.22453393 </i>
   </energy>
  </scstep>
  <scstep>
   <time name="dav">    0.31    0.32</time>
   <time name="total">    0.39    0.39</time>
   <energy>
    <i name="e_fr_energy">    -35.22137033 </i>
    <i name="e_wo_entrp">    -35.23050028 </i>
    <i name="e_0_energy">    -35.22441365 </i>
   </energy>
  </scstep>
  <scstep>
   <time name="dav">    0.25    0.26</time>
   <time name="total">    0.28    0.28</time>
   <energy>
    <i name="alphaZ">    216.17040255 </i>
    <i name="ewald">  42800.36316818 </i>
    <i name="hartreedc"> -53546.19975130 </i>
    <i name="XCdc">    362.38443377 </i>
    <i name="pawpsdc">  10542.58538819 </i>
    <i name="pawaedc"> -11404.87630719 </i>
    <i name="eentropy">      0.00899681 </i>
    <i name="bandstr">   -158.27594976 </i>
    <i name="atom">  11152.61838693 </i>
    <i name="e_fr_energy">    -35.22123182 </i>
    <i name="e_wo_entrp">    -35.23022863 </i>
    <i name="e_0_energy">    -35.22423076 </i>
   </energy>
  </scstep>
  <structure>
   <crystal>
    <varray name="basis" >
     <v>       3.63000011       0.00000000       0.00000000 </v>
     <v>       0.00000000       2.56679773       0.00000000 </v>
     <v>       0.00000000       0.00000000      23.98379135 </v>
    </varray>
    <i name="volume">    223.46840188 </i>
    <varray name="rec_basis" >
     <v>       0.27548208       0.00000000       0.00000000 </v>
     <v>       0.00000000       0.38959050       0.00000000 </v>
     <v>       0.00000000       0.00000000       0.04169483 </v>
    </varray>
   </crystal>
   <varray name="positions" >
    <v>       0.00000000      -0.00000091       0.00384095 </v>
    <v>       0.50000000       0.50003145       0.05031926 </v>
    <v>       0.00000000       0.00011525       0.10500496 </v>
    <v>       0.50000000       0.49984130       0.15822315 </v>
    <v>       0.00000000       0.00006718       0.20915186 </v>
    <v>       0.50000000       0.50118566       0.26265414 </v>
    <v>       0.00000000      -0.00671696       0.31598345 </v>
    <v>       0.50000000       0.47313885       0.36238333 </v>
    <v>       0.50000000       0.01950464       0.42789000 </v>
    <v>       0.50000000       0.21834317       0.45187263 </v>
   </varray>
  </structure>
  <varray name="forces" >
   <v>       0.00000000      -0.00027647      -0.04821476 </v>
   <v>       0.00000000      -0.00052004       0.09701014 </v>
   <v>       0.00000000      -0.00083608       0.01375344 </v>
   <v>       0.00000000       0.00096129      -0.11337390 </v>
   <v>       0.00000000       0.00234239       0.00090535 </v>
   <v>       0.00000000      -0.01468686      -0.10913581 </v>
   <v>       0.00000000      -0.12162958      -0.08674132 </v>
   <v>       0.00000000      -0.10864474      -0.05826570 </v>
   <v>       0.00000000      -0.10031233      -0.18078794 </v>
   <v>       0.00000000       0.34360242       0.48485050 </v>
  </varray>
  <varray name="stress" >
   <v>     -30.96783321       0.00000000       0.00000000 </v>
   <v>       0.00000000     -26.80724962       5.13021516 </v>
   <v>       0.00000000       5.13021517       4.58230721 </v>
  </varray>
  <energy>
   <i name="e_fr_energy">    -38.43181213 </i>
   <i name="e_wo_entrp">    -38.44080894 </i>
   <i name="e_0_energy">    -38.43481107 </i>
  </energy>
  <time name="totalsc">    2.78    2.85</time>
 </calculation>
 <calculation>
  <scstep>
   <time name="dav">    0.33    0.33</time>
   <time name="total">    0.40    0.40</time>
   <energy>
    <i name="alphaZ">    216.17040255 </i>
    <i name="ewald">  42804.26220136 </i>
    <i name="hartreedc"> -53550.20810345 </i>
    <i name="XCdc">    362.38687329 </i>
    <i name="pawpsdc">  10542.65580453 </i>
    <i name="pawaedc"> -11404.95277595 </i>
    <i name="eentropy">      0.00895041 </i>
    <i name="bandstr">   -158.16299142 </i>
    <i name="atom">  11152.61838693 </i>
    <i name="e_fr_energy">    -35.22125176 </i>
    <i name="e_wo_entrp">    -35.23020217 </i>
    <i name="e_0_energy">    -35.22423523 </i>
   </energy>
  </scstep>
  <scstep>
   <time name="dav">    0.24    0.24</time>
   <time name="total">    0.26    0.27</time>
   <energy>
    <i name="alphaZ">    216.17040255 </i>
    <i name="ewald">  42804.26220136 </i>
    <i name="hartreedc"> -53550.35778027 </i>
    <i name="XCdc">    362.38773801 </i>
    <i name="pawpsdc">  10542.65775607 </i>
    <i name="pawaedc"> -11404.95454284 </i>
    <i name="eentropy">      0.00891408 </i>
    <i name="bandstr">   -158.01434913 </i>
    <i name="atom">  11152.61838693 </i>
    <i name="e_fr_energy">    -35.22127324 </i>
    <i name="e_wo_entrp">    -35.23018732 </i>
    <i name="e_0_energy">    -35.22424460 </i>
   </energy>
  </scstep>
  <structure>
   <crystal>
    <varray name="basis" >
     <v>       3.63000011       0.00000000       0.00000000 </v>
     <v>       0.00000000       2.56679773       0.00000000 </v>
     <v>       0.00000000       0.00000000      23.98379135 </v>
    </varray>
    <i name="volume">    223.46840188 </i>
    <varray name="rec_basis" >
     <v>       0.27548208       0.00000000       0.00000000 </v>
     <v>       0.00000000       0.38959050       0.00000000 </v>
     <v>       0.00000000       0.00000000       0.04169483 </v>
    </varray>
   </crystal>
   <varray name="positions" >
    <v>       0.00000000      -0.00000208       0.00384982 </v>
    <v>       0.50000000       0.50003068       0.05032670 </v>
    <v>       0.00000000       0.00011389       0.10501436 </v>
    <v>       0.50000000       0.49984090       0.15820053 </v>
    <v>       0.00000000       0.00006985       0.20915093 </v>
    <v>       0.50000000       0.50119332       0.26261475 </v>
    <v>       0.00000000      -0.00691830       0.31596126 </v>
    <v>       0.50000000       0.47288245       0.36239122 </v>
    <v>       0.50000000       0.02003382       0.42793150 </v>
    <v>       0.50000000       0.21826510       0.45188268 </v>
   </varray>
  </structure>
  <varray name="forces" >
   <v>       0.00000000      -0.00276590      -0.05368536 </v>
   <v>       0.00000000      -0.00300070       0.09834780 </v>
   <v>       0.00000000      -0.00335195       0.01065569 </v>
   <v>       0.00000000      -0.00153401      -0.11311235 </v>
   <v>       0.00000000      -0.00036581      -0.00483197 </v>
   <v>       0.00000000      -0.01711022      -0.10371650 </v>
   <v>       0.00000000      -0.11393589      -0.07665683 </v>
   <v>       0.00000000      -0.09490826      -0.05680663 </v>
   <v>       0.00000000      -0.13306146      -0.21573406 </v>
   <v>       0.00000000       0.37003420       0.51554021 </v>
  </varray>
  <varray name="stress" >
   <v>     -31.63959597       0.00000000       0.00000000 </v>
   <v>       0.00000000     -27.33087268       5.23078901 </v>
   <v>       0.00000000       5.23078902       3.94933876 </v>
  </varray>
  <energy>
   <i name="e_fr_energy">    -38.43191675 </i>
   <i name="e_wo_entrp">    -38.44083083 </i>
   <i name="e_0_energy">    -38.43488811 </i>
  </energy>
  <time name="totalsc">    1.15    1.17</time>
 </calculation>
 <calculation>
  <scstep>
   <time name="dav">    0.31    0.32</time>
   <time name="total">    0.39    0.39</time>
   <energy>
    <i name="alphaZ">    216.17040255 </i>
    <i name="ewald">  42846.22654715 </i>
    <i name="hartreedc"> -53592.40688575 </i>
    <i name="XCdc">    362.38141692 </i>
    <i name="pawpsdc">  10542.66172701 </i>
    <i name="pawaedc"> -11404.95711345 </i>
    <i name="eentropy">      0.00807568 </i>
    <i name="bandstr">   -157.92941394 </i>
    <i name="atom">  11152.61838693 </i>
    <i name="e_fr_energy">    -35.22685691 </i>
    <i name="e_wo_entrp">    -35.23493259 </i>
    <i name="e_0_energy">    -35.22954881 </i>
   </energy>
  </scstep>
  <scstep>
   <time name="dav">    0.37    0.38</time>
   <time name="total">    0.45    0.45</time>
   <energy>
    <i name="e_fr_energy">    -35.22955465 </i>
    <i name="e_wo_entrp">    -35.23785846 </i>
    <i name="e_0_energy">    -35.23232259 </i>
   </energy>
  </scstep>
  <scstep>
   <time name="dav">    0.31    0.31</time>
   <time name="total">    0.33    0.34</time>
   <energy>
    <i name="alphaZ">    216.17040255 </i>
    <i name="ewald">  42846.22654715 </i>
    <i name="hartreedc"> -53592.06676004 </i>
    <i name="XCdc">    362.37651214 </i>
    <i name="pawpsdc">  10542.27481657 </i>
    <i name="pawaedc"> -11404.53333771 </i>
    <i name="eentropy">      0.00823578 </i>
    <i name="bandstr">   -158.30427849 </i>
    <i name="atom">  11152.61838693 </i>
    <i name="e_fr_energy">    -35.22947513 </i>
    <i name="e_wo_entrp">    -35.23771091 </i>
    <i name="e_0_energy">    -35.23222039 </i>
   </energy>
  </scstep>
  <structure>
   <crystal>
    <varray name="basis" >
     <v>       3.63000011       0.00000000       0.00000000 </v>
     <v>       0.00000000       2.56679773       0.00000000 </v>
     <v>       0.00000000       0.00000000      23.98379135 </v>
    </varray>
    <i name="volume">    223.46840188 </i>
    <varray name="rec_basis" >
     <v>       0.27548208       0.00000000       0.00000000 </v>
     <v>       0.00000000       0.38959050       0.00000000 </v>
     <v>       0.00000000       0.00000000       0.04169483 </v>
    </varray>
   </crystal>
   <varray name="positions" >
    <v>       0.00000000      -0.00003171       0.00387664 </v>
    <v>       0.50000000       0.50000254       0.05046256 </v>
    <v>       0.00000000       0.00007849       0.10509626 </v>
    <v>       0.50000000       0.49982646       0.15793429 </v>
    <v>       0.00000000       0.00008806       0.20913981 </v>
    <v>       0.50000000       0.50112665       0.26222495 </v>
    <v>       0.00000000      -0.00933341       0.31572726 </v>
    <v>       0.50000000       0.47017775       0.36240795 </v>
    <v>       0.50000000       0.02318479       0.42808509 </v>
    <v>       0.50000000       0.22039002       0.45236893 </v>
   </varray>
  </structure>
  <varray name="forces" >
   <v>       0.00000000      -0.00244977      -0.03754304 </v>
   <v>       0.00000000      -0.00263306       0.06955430 </v>
   <v>       0.00000000      -0.00304862      -0.01280686 </v>
   <v>       0.00000000      -0.00108724      -0.08880319 </v>
   <v>       0.00000000       0.00038830      -0.02854631 </v>
   <v>       0.00000000      -0.02650679      -0.04074778 </v>
   <v>       0.00000000      -0.11123434      -0.06476305 </v>
   <v>       0.00000000      -0.09103570      -0.09523308 </v>
   <v>       0.00000000      -0.06097794      -0.12840242 </v>
   <v>       0.00000000       0.29858515       0.42729142 </v>
  </varray>
  <varray name="stress" >
   <v>     -28.84314573       0.00000000       0.00000000 </v>
   <v>       0.00000000     -24.71220483       4.91760165 </v>
   <v>       0.00000000       4.91760174       6.35954592 </v>
  </varray>
  <energy>
   <i name="e_fr_energy">    -38.44168632 </i>
   <i name="e_wo_entrp">    -38.44992210 </i>
   <i name="e_0_energy">    -38.44443158 </i>
  </energy>
  <time name="totalsc">    1.65    1.69</time>
 </calculation>
 <calculation>
  <scstep>
   <time name="dav">    0.33    0.33</time>
   <time name="total">    0.40    0.40</time>
   <energy>
    <i name="alphaZ">    216.17040255 </i>
    <i name="ewald">  42972.43408478 </i>
    <i name="hartreedc"> -53718.48497617 </i>
    <i name="XCdc">    362.36528680 </i>
    <i name="pawpsdc">  10542.23993802 </i>
    <i name="pawaedc"> -11404.50716174 </i>
    <i name="eentropy">      0.00552455 </i>
    <i name="bandstr">   -158.06044539 </i>
    <i name="atom">  11152.61838693 </i>
    <i name="e_fr_energy">    -35.21895968 </i>
    <i name="e_wo_entrp">    -35.22448423 </i>
    <i name="e_0_energy">    -35.22080119 </i>
   </energy>
  </scstep>
  <scstep>
   <time name="dav">    0.38    0.38</time>
   <time name="total">    0.45    0.46</time>
   <energy>
    <i name="e_fr_energy">    -35.24449033 </i>
    <i name="e_wo_entrp">    -35.25062250 </i>
    <i name="e_0_energy">    -35.24653439 </i>
   </energy>
  </scstep>
  <scstep>
   <time name="dav">    0.35    0.35</time>
   <time name="total">    0.42    0.43</time>
   <energy>
    <i name="e_fr_energy">    -35.24324331 </i>
    <i name="e_wo_entrp">    -35.24943960 </i>
    <i name="e_0_energy">    -35.24530874 </i>
   </energy>
  </scstep>
  <scstep>
   <time name="dav">    0.32    0.33</time>
   <time name="total">    0.39    0.40</time>
   <energy>
    <i name="e_fr_energy">    -35.24262906 </i>
    <i name="e_wo_entrp">    -35.24891429 </i>
    <i name="e_0_energy">    -35.24472414 </i>
   </energy>
  </scstep>
  <scstep>
   <time name="dav">    0.45    0.45</time>
   <time name="total">    0.52    0.52</time>
   <energy>
    <i name="e_fr_energy">    -35.24195305 </i>
    <i name="e_wo_entrp">    -35.24864282 </i>
    <i name="e_0_energy">    -35.24418297 </i>
   </energy>
  </scstep>
  <scstep>
   <time name="dav">    0.36    0.36</time>
   <time name="total">    0.43    0.44</time>
   <energy>
    <i name="e_fr_energy">    -35.24157360 </i>
    <i name="e_wo_entrp">    -35.24805646 </i>
    <i name="e_0_energy">    -35.24373455 </i>
   </energy>
  </scstep>
  <scstep>
   <time name="dav">    0.25    0.25</time>
   <time name="total">    0.27    0.27</time>
   <energy>
    <i name="alphaZ">    216.17040255 </i>
    <i name="ewald">  42972.43408478 </i>
    <i name="hartreedc"> -53716.51265980 </i>
    <i name="XCdc">    362.35097576 </i>
    <i name="pawpsdc">  10541.70830017 </i>
    <i name="pawaedc"> -11404.03041173 </i>
    <i name="eentropy">      0.00649695 </i>
    <i name="bandstr">   -159.98716275 </i>
    <i name="atom">  11152.61838693 </i>
    <i name="e_fr_energy">    -35.24158715 </i>
    <i name="e_wo_entrp">    -35.24808410 </i>
    <i name="e_0_energy">    -35.24375280 </i>
   </energy>
  </scstep>
  <structure>
   <crystal>
    <varray name="basis" >
     <v>       3.63000011       0.00000000       0.00000000 </v>
     <v>       0.00000000       2.56679773       0.00000000 </v>
     <v>       0.00000000       0.00000000      23.98379135 </v>
    </varray>
    <i name="volume">    223.46840188 </i>
    <varray name="rec_basis" >
     <v>       0.27548208       0.00000000       0.00000000 </v>
     <v>       0.00000000       0.38959050       0.00000000 </v>
     <v>       0.00000000       0.00000000       0.04169483 </v>
    </varray>
   </crystal>
   <varray name="positions" >
    <v>       0.00000000      -0.00012060       0.00395708 </v>
    <v>       0.50000000       0.49991810       0.05087015 </v>
    <v>       0.00000000      -0.00002772       0.10534195 </v>
    <v>       0.50000000       0.49978314       0.15713559 </v>
    <v>       0.00000000       0.00014266       0.20910645 </v>
    <v>       0.50000000       0.50092665       0.26105555 </v>
    <v>       0.00000000      -0.01657875       0.31502526 </v>
    <v>       0.50000000       0.46206367       0.36245815 </v>
    <v>       0.50000000       0.03263772       0.42854586 </v>
    <v>       0.50000000       0.22676477       0.45382770 </v>
   </varray>
  </structure>
  <varray name="forces" >
   <v>       0.00000000      -0.00142069      -0.01576110 </v>
   <v>       0.00000000      -0.00201626      -0.01355613 </v>
   <v>       0.00000000      -0.00215754      -0.08618942 </v>
   <v>       0.00000000       0.00067633       0.01545807 </v>
   <v>       0.00000000       0.00116496      -0.09258954 </v>
   <v>       0.00000000      -0.05466323       0.15335072 </v>
   <v>       0.00000000      -0.08185726      -0.01566096 </v>
   <v>       0.00000000      -0.05815565      -0.18689624 </v>
   <v>       0.00000000       0.12168056       0.10465007 </v>
   <v>       0.00000000       0.07674878       0.13719452 </v>
  </varray>
  <varray name="stress" >
   <v>     -33.97094154       0.00000000       0.00000000 </v>
   <v>       0.00000000     -30.64996616       3.93560487 </v>
   <v>       0.00000000       3.93560484       0.60983594 </v>
  </varray>
  <energy>
   <i name="e_fr_energy">    -38.45884200 </i>
   <i name="e_wo_entrp">    -38.46533896 </i>
   <i name="e_0_energy">    -38.46100766 </i>
  </energy>
  <time name="totalsc">    3.37    3.43</time>
 </calculation>
 <calculation>
  <scstep>
   <time name="dav">    0.31    0.31</time>
   <time name="total">    0.38    0.39</time>
   <energy>
    <i name="alphaZ">    216.17040255 </i>
    <i name="ewald">  43028.57695472 </i>
    <i name="hartreedc"> -53772.71581423 </i>
    <i name="XCdc">    362.34323857 </i>
    <i name="pawpsdc">  10541.70824300 </i>
    <i name="pawaedc"> -11404.01321815 </i>
    <i name="eentropy">      0.00512111 </i>
    <i name="bandstr">   -159.93040871 </i>
    <i name="atom">  11152.61838693 </i>
    <i name="e_fr_energy">    -35.23709422 </i>
    <i name="e_wo_entrp">    -35.24221533 </i>
    <i name="e_0_energy">    -35.23880125 </i>
   </energy>
  </scstep>
  <scstep>
   <time name="dav">    0.37    0.38</time>
   <time name="total">    0.45    0.45</time>
   <energy>
    <i name="e_fr_energy">    -35.24195058 </i>
    <i name="e_wo_entrp">    -35.24746784 </i>
    <i name="e_0_energy">    -35.24378967 </i>
   </energy>
  </scstep>
  <scstep>
   <time name="dav">    0.33    0.33</time>
   <time name="total">    0.35    0.35</time>
   <energy>
    <i name="alphaZ">    216.17040255 </i>
    <i name="ewald">  43028.57695472 </i>
    <i name="hartreedc"> -53772.05929180 </i>
    <i name="XCdc">    362.33387137 </i>
    <i name="pawpsdc">  10541.37287624 </i>
    <i name="pawaedc"> -11403.61617782 </i>
    <i name="eentropy">      0.00541852 </i>
    <i name="bandstr">   -160.64427788 </i>
    <i name="atom">  11152.61838693 </i>
    <i name="e_fr_energy">    -35.24183717 </i>
    <i name="e_wo_entrp">    -35.24725569 </i>
    <i name="e_0_energy">    -35.24364334 </i>
   </energy>
  </scstep>
  <structure>
   <crystal>
    <varray name="basis" >
     <v>       3.63000011       0.00000000       0.00000000 </v>
     <v>       0.00000000       2.56679773       0.00000000 </v>
     <v>       0.00000000       0.00000000      23.98379135 </v>
    </varray>
    <i name="volume">    223.46840188 </i>
    <varray name="rec_basis" >
     <v>       0.27548208       0.00000000       0.00000000 </v>
     <v>       0.00000000       0.38959050       0.00000000 </v>
     <v>       0.00000000       0.00000000       0.04169483 </v>
    </varray>
   </crystal>
   <varray name="positions" >
    <v>       0.00000000      -0.00016004       0.00399277 </v>
    <v>       0.50000000       0.49988064       0.05105099 </v>
    <v>       0.00000000      -0.00007484       0.10545095 </v>
    <v>       0.50000000       0.49976391       0.15678123 </v>
    <v>       0.00000000       0.00016689       0.20909165 </v>
    <v>       0.50000000       0.50083791       0.26053673 </v>
    <v>       0.00000000      -0.01979329       0.31471380 </v>
    <v>       0.50000000       0.45846370       0.36248042 </v>
    <v>       0.50000000       0.03683169       0.42875029 </v>
    <v>       0.50000000       0.22959306       0.45447491 </v>
   </varray>
  </structure>
  <varray name="forces" >
   <v>       0.00000000      -0.00218081      -0.00828552 </v>
   <v>       0.00000000      -0.00238213      -0.05178830 </v>
   <v>       0.00000000      -0.00265577      -0.11609814 </v>
   <v>       0.00000000       0.00058563       0.05318725 </v>
   <v>       0.00000000       0.00172339      -0.11873958 </v>
   <v>       0.00000000      -0.06837115       0.22940907 </v>
   <v>       0.00000000      -0.07784967       0.00389950 </v>
   <v>       0.00000000      -0.04441302      -0.23639819 </v>
   <v>       0.00000000       0.19650906       0.21776433 </v>
   <v>       0.00000000      -0.00096553       0.02704958 </v>
  </varray>
  <varray name="stress" >
   <v>     -27.16533402       0.00000000       0.00000000 </v>
   <v>       0.00000000     -24.07500533       3.52687554 </v>
   <v>       0.00000000       3.52687571       7.09282391 </v>
  </varray>
  <energy>
   <i name="e_fr_energy">    -38.46154270 </i>
   <i name="e_wo_entrp">    -38.46696122 </i>
   <i name="e_0_energy">    -38.46334887 </i>
  </energy>
  <time name="totalsc">    1.66    1.70</time>
 </calculation>
 <calculation>
  <scstep>
   <time name="dav">    0.31    0.31</time>
   <time name="total">    0.38    0.38</time>
   <energy>
    <i name="alphaZ">    216.17040255 </i>
    <i name="ewald">  43078.88392129 </i>
    <i name="hartreedc"> -53822.14472611 </i>
    <i name="XCdc">    362.34300410 </i>
    <i name="pawpsdc">  10541.42859418 </i>
    <i name="pawaedc"> -11403.68796623 </i>
    <i name="eentropy">      0.00462458 </i>
    <i name="bandstr">   -160.86258601 </i>
    <i name="atom">  11152.61838693 </i>
    <i name="e_fr_energy">    -35.24634473 </i>
    <i name="e_wo_entrp">    -35.25096930 </i>
    <i name="e_0_energy">    -35.24788625 </i>
   </energy>
  </scstep>
  <scstep>
   <time name="dav">    0.36    0.37</time>
   <time name="total">    0.44    0.44</time>
   <energy>
    <i name="e_fr_energy">    -35.24972007 </i>
    <i name="e_wo_entrp">    -35.25456632 </i>
    <i name="e_0_energy">    -35.25133549 </i>
   </energy>
  </scstep>
  <scstep>
   <time name="dav">    0.32    0.32</time>
   <time name="total">    0.39    0.39</time>
   <energy>
    <i name="e_fr_energy">    -35.24946991 </i>
    <i name="e_wo_entrp">    -35.25432440 </i>
    <i name="e_0_energy">    -35.25108808 </i>
   </energy>
  </scstep>
  <scstep>
   <time name="dav">    0.31    0.31</time>
   <time name="total">    0.33    0.34</time>
   <energy>
    <i name="alphaZ">    216.17040255 </i>
    <i name="ewald">  43078.88392129 </i>
    <i name="hartreedc"> -53821.53811266 </i>
    <i name="XCdc">    362.34829098 </i>
    <i name="pawpsdc">  10543.13229888 </i>
    <i name="pawaedc"> -11405.45232581 </i>
    <i name="eentropy">      0.00512797 </i>
    <i name="bandstr">   -161.41734623 </i>
    <i name="atom">  11152.61838693 </i>
    <i name="e_fr_energy">    -35.24935611 </i>
    <i name="e_wo_entrp">    -35.25448408 </i>
    <i name="e_0_energy">    -35.25106544 </i>
   </energy>
  </scstep>
  <structure>
   <crystal>
    <varray name="basis" >
     <v>       3.63000011       0.00000000       0.00000000 </v>
     <v>       0.00000000       2.56679773       0.00000000 </v>
     <v>       0.00000000       0.00000000      23.98379135 </v>
    </varray>
    <i name="volume">    223.46840188 </i>
    <varray name="rec_basis" >
     <v>       0.27548208       0.00000000       0.00000000 </v>
     <v>       0.00000000       0.38959050       0.00000000 </v>
     <v>       0.00000000       0.00000000       0.04169483 </v>
    </varray>
   </crystal>
   <varray name="positions" >
    <v>       0.00000000      -0.00022202       0.00400941 </v>
    <v>       0.50000000       0.49981748       0.05112082 </v>
    <v>       0.00000000      -0.00014959       0.10536775 </v>
    <v>       0.50000000       0.49975644       0.15657310 </v>
    <v>       0.00000000       0.00021026       0.20890441 </v>
    <v>       0.50000000       0.49982310       0.26045568 </v>
    <v>       0.00000000      -0.02346737       0.31446761 </v>
    <v>       0.50000000       0.45493901       0.36214947 </v>
    <v>       0.50000000       0.04293472       0.42923711 </v>
    <v>       0.50000000       0.23186761       0.45503839 </v>
   </varray>
  </structure>
  <varray name="forces" >
   <v>       0.00000000      -0.00028014      -0.02297950 </v>
   <v>       0.00000000      -0.00081954      -0.06747801 </v>
   <v>       0.00000000      -0.00042270      -0.09869926 </v>
   <v>       0.00000000       0.00293226       0.08228185 </v>
   <v>       0.00000000      -0.00203534      -0.09240049 </v>
   <v>       0.00000000      -0.06579704       0.17217789 </v>
   <v>       0.00000000      -0.07174003      -0.00256788 </v>
   <v>       0.00000000      -0.03952642      -0.19002956 </v>
   <v>       0.00000000       0.13893665       0.15780418 </v>
   <v>       0.00000000       0.03875229       0.06189078 </v>
  </varray>
  <varray name="stress" >
   <v>     -31.87073211       0.00000000       0.00000000 </v>
   <v>       0.00000000     -28.91121457       3.62231940 </v>
   <v>       0.00000000       3.62231935       3.31455097 </v>
  </varray>
  <energy>
   <i name="e_fr_energy">    -38.46983214 </i>
   <i name="e_wo_entrp">    -38.47496011 </i>
   <i name="e_0_energy">    -38.47154146 </i>
  </energy>
  <time name="totalsc">    2.02    2.04</time>
 </calculation>
 <calculation>
  <scstep>
   <time name="dav">    0.30    0.31</time>
   <time name="total">    0.38    0.38</time>
   <energy>
    <i name="alphaZ">    216.17040255 </i>
    <i name="ewald">  43230.31939977 </i>
    <i name="hartreedc"> -53972.66015027 </i>
    <i name="XCdc">    362.37697278 </i>
    <i name="pawpsdc">  10543.63483647 </i>
    <i name="pawaedc"> -11405.95418277 </i>
    <i name="eentropy">      0.00222994 </i>
    <i name="bandstr">   -161.73834793 </i>
    <i name="atom">  11152.61838693 </i>
    <i name="e_fr_energy">    -35.23045253 </i>
    <i name="e_wo_entrp">    -35.23268247 </i>
    <i name="e_0_energy">    -35.23119584 </i>
   </energy>
  </scstep>
  <scstep>
   <time name="dav">    0.36    0.36</time>
   <time name="total">    0.43    0.44</time>
   <energy>
    <i name="e_fr_energy">    -35.26620380 </i>
    <i name="e_wo_entrp">    -35.26925544 </i>
    <i name="e_0_energy">    -35.26722101 </i>
   </energy>
  </scstep>
  <scstep>
   <time name="dav">    0.34    0.34</time>
   <time name="total">    0.41    0.41</time>
   <energy>
    <i name="e_fr_energy">    -35.26549645 </i>
    <i name="e_wo_entrp">    -35.26835148 </i>
    <i name="e_0_energy">    -35.26644813 </i>
   </energy>
  </scstep>
  <scstep>
   <time name="dav">    0.34    0.34</time>
   <time name="total">    0.41    0.42</time>
   <energy>
    <i name="e_fr_energy">    -35.26481505 </i>
    <i name="e_wo_entrp">    -35.26804384 </i>
    <i name="e_0_energy">    -35.26589131 </i>
   </energy>
  </scstep>
  <scstep>
   <time name="dav">    0.44    0.45</time>
   <time name="total">    0.52    0.52</time>
   <energy>
    <i name="e_fr_energy">    -35.26350773 </i>
    <i name="e_wo_entrp">    -35.26698775 </i>
    <i name="e_0_energy">    -35.26466774 </i>
   </energy>
  </scstep>
  <scstep>
   <time name="dav">    0.37    0.37</time>
   <time name="total">    0.44    0.44</time>
   <energy>
    <i name="e_fr_energy">    -35.26320504 </i>
    <i name="e_wo_entrp">    -35.26659645 </i>
    <i name="e_0_energy">    -35.26433551 </i>
   </energy>
  </scstep>
  <scstep>
   <time name="dav">    0.29    0.29</time>
   <time name="total">    0.31    0.31</time>
   <energy>
    <i name="alphaZ">    216.17040255 </i>
    <i name="ewald">  43230.31939977 </i>
    <i name="hartreedc"> -53971.30781142 </i>
    <i name="XCdc">    362.38893086 </i>
    <i name="pawpsdc">  10550.59303532 </i>
    <i name="pawaedc"> -11413.06807242 </i>
    <i name="eentropy">      0.00328013 </i>
    <i name="bandstr">   -162.98070335 </i>
    <i name="atom">  11152.61838693 </i>
    <i name="e_fr_energy">    -35.26315163 </i>
    <i name="e_wo_entrp">    -35.26643176 </i>
    <i name="e_0_energy">    -35.26424501 </i>
   </energy>
  </scstep>
  <structure>
   <crystal>
    <varray name="basis" >
     <v>       3.63000011       0.00000000       0.00000000 </v>
     <v>       0.00000000       2.56679773       0.00000000 </v>
[...]
       <r>     6.1120     3.5099    51.5573 </r>
       <r>     6.1846     3.4211    51.8056 </r>
       <r>     6.2572     2.5948    51.9939 </r>
       <r>     6.3297     1.3517    52.0920 </r>
       <r>     6.4023     0.3726    52.1191 </r>
       <r>     6.4749     0.1739    52.1317 </r>
       <r>     6.5475     0.8322    52.1921 </r>
       <r>     6.6200     1.9994    52.3372 </r>
       <r>     6.6926     2.9725    52.5529 </r>
       <r>     6.7652     3.0947    52.7775 </r>
       <r>     6.8378     2.4269    52.9537 </r>
       <r>     6.9103     1.8008    53.0844 </r>
       <r>     6.9829     1.9575    53.2264 </r>
       <r>     7.0555     2.7398    53.4253 </r>
       <r>     7.1281     3.3241    53.6665 </r>
       <r>     7.2006     3.1609    53.8959 </r>
       <r>     7.2732     2.3733    54.0682 </r>
       <r>     7.3458     1.3905    54.1691 </r>
       <r>     7.4184     0.6636    54.2172 </r>
       <r>     7.4910     0.5686    54.2585 </r>
       <r>     7.5635     1.0772    54.3367 </r>
       <r>     7.6361     1.5879    54.4519 </r>
       <r>     7.7087     1.5138    54.5618 </r>
       <r>     7.7813     1.0404    54.6373 </r>
       <r>     7.8538     0.9338    54.7051 </r>
       <r>     7.9264     1.6226    54.8228 </r>
       <r>     7.9990     2.8524    55.0298 </r>
       <r>     8.0716     4.1599    55.3317 </r>
       <r>     8.1441     5.1641    55.7065 </r>
       <r>     8.2167     5.4128    56.0994 </r>
       <r>     8.2893     4.5725    56.4312 </r>
       <r>     8.3619     2.9347    56.6442 </r>
       <r>     8.4344     1.3626    56.7431 </r>
       <r>     8.5070     0.6801    56.7925 </r>
       <r>     8.5796     1.1389    56.8751 </r>
       <r>     8.6522     2.2069    57.0353 </r>
       <r>     8.7247     2.8965    57.2455 </r>
       <r>     8.7973     2.6361    57.4368 </r>
       <r>     8.8699     1.7597    57.5645 </r>
       <r>     8.9425     1.0442    57.6403 </r>
       <r>     9.0150     1.0167    57.7141 </r>
       <r>     9.0876     1.6584    57.8345 </r>
       <r>     9.1602     2.4527    58.0125 </r>
       <r>     9.2328     2.8013    58.2158 </r>
       <r>     9.3053     2.6173    58.4057 </r>
       <r>     9.3779     2.3891    58.5791 </r>
       <r>     9.4505     2.5349    58.7631 </r>
       <r>     9.5231     2.9221    58.9752 </r>
       <r>     9.5957     3.1924    59.2069 </r>
       <r>     9.6682     3.2426    59.4422 </r>
       <r>     9.7408     3.0877    59.6663 </r>
       <r>     9.8134     2.5701    59.8528 </r>
       <r>     9.8860     1.6350    59.9715 </r>
       <r>     9.9585     0.6450    60.0183 </r>
       <r>    10.0311     0.0358    60.0209 </r>
       <r>    10.1037    -0.1364    60.0110 </r>
       <r>    10.1763    -0.0988    60.0038 </r>
       <r>    10.2488    -0.0395    60.0009 </r>
       <r>    10.3214    -0.0106    60.0002 </r>
       <r>    10.3940    -0.0020    60.0000 </r>
       <r>    10.4666    -0.0003    60.0000 </r>
       <r>    10.5391    -0.0000    60.0000 </r>
       <r>    10.6117    -0.0000    60.0000 </r>
       <r>    10.6843    -0.0000    60.0000 </r>
       <r>    10.7569    -0.0000    60.0000 </r>
       <r>    10.8294    -0.0000    60.0000 </r>
       <r>    10.9020    -0.0000    60.0000 </r>
       <r>    10.9746    -0.0000    60.0000 </r>
       <r>    11.0472    -0.0000    60.0000 </r>
       <r>    11.1197     0.0000    60.0000 </r>
       <r>    11.1923     0.0000    60.0000 </r>
       <r>    11.2649     0.0000    60.0000 </r>
       <r>    11.3375     0.0000    60.0000 </r>
       <r>    11.4100     0.0000    60.0000 </r>
       <r>    11.4826     0.0000    60.0000 </r>
       <r>    11.5552     0.0000    60.0000 </r>
       <r>    11.6278     0.0000    60.0000 </r>
       <r>    11.7004     0.0000    60.0000 </r>
       <r>    11.7729     0.0000    60.0000 </r>
      </set>
      <set comment="spin 2">
       <r>    -9.9998     0.0000     0.0000 </r>
       <r>    -9.9273     0.0000     0.0000 </r>
       <r>    -9.8547     0.0000     0.0000 </r>
       <r>    -9.7821     0.0000     0.0000 </r>
       <r>    -9.7095     0.0000     0.0000 </r>
       <r>    -9.6370    -0.0000    -0.0000 </r>
       <r>    -9.5644    -0.0000    -0.0000 </r>
       <r>    -9.4918    -0.0000    -0.0000 </r>
       <r>    -9.4192    -0.0000    -0.0000 </r>
       <r>    -9.3467    -0.0000    -0.0000 </r>
       <r>    -9.2741    -0.0000    -0.0000 </r>
       <r>    -9.2015    -0.0000    -0.0000 </r>
       <r>    -9.1289    -0.0000    -0.0000 </r>
       <r>    -9.0564    -0.0000    -0.0000 </r>
       <r>    -8.9838    -0.0000    -0.0000 </r>
       <r>    -8.9112    -0.0000    -0.0000 </r>
       <r>    -8.8386    -0.0000    -0.0000 </r>
       <r>    -8.7661    -0.0000    -0.0000 </r>
       <r>    -8.6935    -0.0000    -0.0000 </r>
       <r>    -8.6209    -0.0001    -0.0000 </r>
       <r>    -8.5483    -0.0005    -0.0000 </r>
       <r>    -8.4758    -0.0024    -0.0002 </r>
       <r>    -8.4032    -0.0086    -0.0008 </r>
       <r>    -8.3306    -0.0199    -0.0023 </r>
       <r>    -8.2580    -0.0218    -0.0039 </r>
       <r>    -8.1854     0.0289    -0.0018 </r>
       <r>    -8.1129     0.1718     0.0107 </r>
       <r>    -8.0403     0.3619     0.0370 </r>
       <r>    -7.9677     0.4613     0.0704 </r>
       <r>    -7.8951     0.3807     0.0981 </r>
       <r>    -7.8226     0.1928     0.1121 </r>
       <r>    -7.7500     0.0381     0.1148 </r>
       <r>    -7.6774    -0.0281     0.1128 </r>
       <r>    -7.6048    -0.0409     0.1098 </r>
       <r>    -7.5323    -0.0322     0.1075 </r>
       <r>    -7.4597     0.0218     0.1091 </r>
       <r>    -7.3871     0.1577     0.1205 </r>
       <r>    -7.3145     0.3299     0.1445 </r>
       <r>    -7.2420     0.4068     0.1740 </r>
       <r>    -7.1694     0.3459     0.1991 </r>
       <r>    -7.0968     0.3205     0.2223 </r>
       <r>    -7.0242     0.5291     0.2608 </r>
       <r>    -6.9517     0.9036     0.3263 </r>
       <r>    -6.8791     1.1757     0.4117 </r>
       <r>    -6.8065     1.2318     0.5011 </r>
       <r>    -6.7339     1.1926     0.5876 </r>
       <r>    -6.6614     1.1203     0.6689 </r>
       <r>    -6.5888     0.9086     0.7349 </r>
       <r>    -6.5162     0.5345     0.7736 </r>
       <r>    -6.4436     0.1733     0.7862 </r>
       <r>    -6.3710    -0.0185     0.7849 </r>
       <r>    -6.2985    -0.0593     0.7806 </r>
       <r>    -6.2259    -0.0547     0.7766 </r>
       <r>    -6.1533    -0.0748     0.7712 </r>
       <r>    -6.0807    -0.1071     0.7634 </r>
       <r>    -6.0082    -0.0306     0.7612 </r>
       <r>    -5.9356     0.3353     0.7855 </r>
       <r>    -5.8630     1.0236     0.8598 </r>
       <r>    -5.7904     1.8045     0.9908 </r>
       <r>    -5.7179     2.4477     1.1684 </r>
       <r>    -5.6453     2.9355     1.3815 </r>
       <r>    -5.5727     3.1727     1.6117 </r>
       <r>    -5.5001     2.8427     1.8180 </r>
       <r>    -5.4276     1.8943     1.9555 </r>
       <r>    -5.3550     0.8069     2.0141 </r>
       <r>    -5.2824     0.1016     2.0215 </r>
       <r>    -5.2098    -0.1392     2.0113 </r>
       <r>    -5.1373    -0.1567     2.0000 </r>
       <r>    -5.0647    -0.1675     1.9878 </r>
       <r>    -4.9921    -0.1746     1.9751 </r>
       <r>    -4.9195     0.0689     1.9801 </r>
       <r>    -4.8470     0.8981     2.0453 </r>
       <r>    -4.7744     2.2548     2.2090 </r>
       <r>    -4.7018     3.3637     2.4531 </r>
       <r>    -4.6292     3.3314     2.6949 </r>
       <r>    -4.5567     2.1735     2.8526 </r>
       <r>    -4.4841     0.7985     2.9106 </r>
       <r>    -4.4115    -0.0459     2.9072 </r>
       <r>    -4.3389    -0.3382     2.8827 </r>
       <r>    -4.2663    -0.3177     2.8596 </r>
       <r>    -4.1938     0.1089     2.8676 </r>
       <r>    -4.1212     1.2678     2.9596 </r>
       <r>    -4.0486     3.0040     3.1776 </r>
       <r>    -3.9760     4.3261     3.4916 </r>
       <r>    -3.9035     4.2447     3.7996 </r>
       <r>    -3.8309     2.9457     4.0134 </r>
       <r>    -3.7583     1.6419     4.1326 </r>
       <r>    -3.6857     1.2588     4.2239 </r>
       <r>    -3.6132     1.7022     4.3475 </r>
       <r>    -3.5406     2.4401     4.5246 </r>
       <r>    -3.4680     3.2814     4.7627 </r>
       <r>    -3.3954     4.2579     5.0717 </r>
       <r>    -3.3229     5.1606     5.4463 </r>
       <r>    -3.2503     5.7422     5.8630 </r>
       <r>    -3.1777     6.1761     6.3112 </r>
       <r>    -3.1051     6.8272     6.8067 </r>
       <r>    -3.0326     7.7149     7.3666 </r>
       <r>    -2.9600     8.5903     7.9901 </r>
       <r>    -2.8874     9.2445     8.6610 </r>
       <r>    -2.8148     9.3888     9.3424 </r>
       <r>    -2.7423     8.7228     9.9755 </r>
       <r>    -2.6697     7.5168    10.5210 </r>
       <r>    -2.5971     6.7204    11.0088 </r>
       <r>    -2.5245     7.0674    11.5217 </r>
       <r>    -2.4520     8.2276    12.1188 </r>
       <r>    -2.3794     9.3125    12.7947 </r>
       <r>    -2.3068    10.0809    13.5263 </r>
       <r>    -2.2342    10.8833    14.3162 </r>
       <r>    -2.1616    11.6055    15.1585 </r>
       <r>    -2.0891    11.8413    16.0178 </r>
       <r>    -2.0165    12.0950    16.8957 </r>
       <r>    -1.9439    13.4336    17.8706 </r>
       <r>    -1.8713    15.6517    19.0065 </r>
       <r>    -1.7988    17.0263    20.2422 </r>
       <r>    -1.7262    16.3656    21.4300 </r>
       <r>    -1.6536    14.3947    22.4747 </r>
       <r>    -1.5810    12.6839    23.3952 </r>
       <r>    -1.5085    11.7889    24.2508 </r>
       <r>    -1.4359    10.9686    25.0469 </r>
       <r>    -1.3633     9.6992    25.7508 </r>
       <r>    -1.2907     8.8466    26.3929 </r>
       <r>    -1.2182     9.7713    27.1020 </r>
       <r>    -1.1456    12.6322    28.0188 </r>
       <r>    -1.0730    16.2231    29.1962 </r>
       <r>    -1.0004    19.0647    30.5799 </r>
       <r>    -0.9279    20.0583    32.0356 </r>
       <r>    -0.8553    18.9828    33.4133 </r>
       <r>    -0.7827    17.1753    34.6598 </r>
       <r>    -0.7101    16.6036    35.8648 </r>
       <r>    -0.6376    17.5964    37.1419 </r>
       <r>    -0.5650    18.5956    38.4915 </r>
       <r>    -0.4924    18.2319    39.8147 </r>
       <r>    -0.4198    16.4123    41.0059 </r>
       <r>    -0.3472    13.6134    41.9939 </r>
       <r>    -0.2747    10.3753    42.7469 </r>
       <r>    -0.2021     7.3966    43.2837 </r>
       <r>    -0.1295     5.1828    43.6598 </r>
       <r>    -0.0569     3.5720    43.9190 </r>
       <r>     0.0156     2.1323    44.0738 </r>
       <r>     0.0882     0.8577    44.1360 </r>
       <r>     0.1608     0.0456    44.1394 </r>
       <r>     0.2334    -0.2470    44.1214 </r>
       <r>     0.3059    -0.2314    44.1046 </r>
       <r>     0.3785    -0.0377    44.1019 </r>
       <r>     0.4511     0.3792    44.1294 </r>
       <r>     0.5237     1.0113    44.2028 </r>
       <r>     0.5962     1.6816    44.3249 </r>
       <r>     0.6688     2.2270    44.4865 </r>
       <r>     0.7414     2.5835    44.6740 </r>
       <r>     0.8140     2.5891    44.8619 </r>
       <r>     0.8865     2.0485    45.0106 </r>
       <r>     0.9591     1.1473    45.0938 </r>
       <r>     1.0317     0.4514    45.1266 </r>
       <r>     1.1043     0.3360    45.1510 </r>
       <r>     1.1768     0.6135    45.1955 </r>
       <r>     1.2494     0.8061    45.2540 </r>
       <r>     1.3220     0.7099    45.3055 </r>
       <r>     1.3946     0.5657    45.3466 </r>
       <r>     1.4671     0.6223    45.3917 </r>
       <r>     1.5397     0.7606    45.4469 </r>
       <r>     1.6123     0.7867    45.5040 </r>
       <r>     1.6849     0.8688    45.5671 </r>
       <r>     1.7575     1.2604    45.6586 </r>
       <r>     1.8300     1.7061    45.7824 </r>
       <r>     1.9026     1.6380    45.9013 </r>
       <r>     1.9752     0.9912    45.9732 </r>
       <r>     2.0478     0.3804    46.0008 </r>
       <r>     2.1203     0.4127    46.0308 </r>
       <r>     2.1929     1.0493    46.1069 </r>
       <r>     2.2655     1.6492    46.2266 </r>
       <r>     2.3381     1.6632    46.3473 </r>
       <r>     2.4106     1.2646    46.4391 </r>
       <r>     2.4832     1.0432    46.5148 </r>
       <r>     2.5558     1.2064    46.6024 </r>
       <r>     2.6284     1.5201    46.7127 </r>
       <r>     2.7009     1.8003    46.8433 </r>
       <r>     2.7735     1.9281    46.9833 </r>
       <r>     2.8461     1.7008    47.1067 </r>
       <r>     2.9187     1.2109    47.1946 </r>
       <r>     2.9912     1.0076    47.2677 </r>
       <r>     3.0638     1.4050    47.3697 </r>
       <r>     3.1364     1.9531    47.5114 </r>
       <r>     3.2090     1.9625    47.6539 </r>
       <r>     3.2815     1.3275    47.7502 </r>
       <r>     3.3541     0.5389    47.7893 </r>
       <r>     3.4267     0.0487    47.7929 </r>
       <r>     3.4993    -0.0949    47.7860 </r>
       <r>     3.5719    -0.0754    47.7805 </r>
       <r>     3.6444    -0.0442    47.7773 </r>
       <r>     3.7170    -0.0616    47.7728 </r>
       <r>     3.7896    -0.1386    47.7628 </r>
       <r>     3.8622    -0.1988    47.7483 </r>
       <r>     3.9347     0.0366    47.7510 </r>
       <r>     4.0073     0.9480    47.8198 </r>
       <r>     4.0799     2.4861    48.0002 </r>
       <r>     4.1525     3.8128    48.2769 </r>
       <r>     4.2250     3.9984    48.5671 </r>
       <r>     4.2976     3.1087    48.7928 </r>
       <r>     4.3702     2.0728    48.9432 </r>
       <r>     4.4428     1.5562    49.0561 </r>
       <r>     4.5153     1.4666    49.1626 </r>
       <r>     4.5879     1.4085    49.2648 </r>
       <r>     4.6605     1.1658    49.3494 </r>
       <r>     4.7331     0.7609    49.4046 </r>
       <r>     4.8056     0.3447    49.4297 </r>
       <r>     4.8782     0.1450    49.4402 </r>
       <r>     4.9508     0.3753    49.4674 </r>
       <r>     5.0234     0.9995    49.5400 </r>
       <r>     5.0959     1.5969    49.6558 </r>
       <r>     5.1685     1.6659    49.7767 </r>
       <r>     5.2411     1.1330    49.8590 </r>
       <r>     5.3137     0.4031    49.8882 </r>
       <r>     5.3862    -0.0788    49.8825 </r>
       <r>     5.4588    -0.0916    49.8759 </r>
       <r>     5.5314     0.4434    49.9080 </r>
       <r>     5.6040     1.4488    50.0132 </r>
       <r>     5.6766     2.5485    50.1982 </r>
       <r>     5.7491     3.2160    50.4316 </r>
       <r>     5.8217     3.2207    50.6653 </r>
       <r>     5.8943     2.8865    50.8748 </r>
       <r>     5.9669     2.7823    51.0767 </r>
       <r>     6.0394     3.1112    51.3025 </r>
       <r>     6.1120     3.5099    51.5573 </r>
       <r>     6.1846     3.4213    51.8056 </r>
       <r>     6.2572     2.5950    51.9939 </r>
       <r>     6.3297     1.3519    52.0920 </r>
       <r>     6.4023     0.3727    52.1191 </r>
       <r>     6.4749     0.1739    52.1317 </r>
       <r>     6.5475     0.8322    52.1921 </r>
       <r>     6.6200     1.9993    52.3372 </r>
       <r>     6.6926     2.9724    52.5529 </r>
       <r>     6.7652     3.0946    52.7775 </r>
       <r>     6.8378     2.4269    52.9536 </r>
       <r>     6.9103     1.8008    53.0843 </r>
       <r>     6.9829     1.9576    53.2264 </r>
       <r>     7.0555     2.7398    53.4253 </r>
       <r>     7.1281     3.3241    53.6665 </r>
       <r>     7.2006     3.1608    53.8959 </r>
       <r>     7.2732     2.3733    54.0681 </r>
       <r>     7.3458     1.3906    54.1691 </r>
       <r>     7.4184     0.6635    54.2172 </r>
       <r>     7.4910     0.5683    54.2585 </r>
       <r>     7.5635     1.0768    54.3366 </r>
       <r>     7.6361     1.5878    54.4518 </r>
       <r>     7.7087     1.5140    54.5617 </r>
       <r>     7.7813     1.0407    54.6373 </r>
       <r>     7.8538     0.9340    54.7051 </r>
       <r>     7.9264     1.6226    54.8228 </r>
       <r>     7.9990     2.8524    55.0298 </r>
       <r>     8.0716     4.1598    55.3317 </r>
       <r>     8.1441     5.1640    55.7065 </r>
       <r>     8.2167     5.4127    56.0993 </r>
       <r>     8.2893     4.5725    56.4312 </r>
       <r>     8.3619     2.9347    56.6442 </r>
       <r>     8.4344     1.3627    56.7431 </r>
       <r>     8.5070     0.6799    56.7924 </r>
       <r>     8.5796     1.1385    56.8751 </r>
       <r>     8.6522     2.2065    57.0352 </r>
       <r>     8.7247     2.8965    57.2454 </r>
       <r>     8.7973     2.6365    57.4368 </r>
       <r>     8.8699     1.7601    57.5645 </r>
       <r>     8.9425     1.0443    57.6403 </r>
       <r>     9.0150     1.0165    57.7141 </r>
       <r>     9.0876     1.6580    57.8344 </r>
       <r>     9.1602     2.4525    58.0124 </r>
       <r>     9.2328     2.8014    58.2157 </r>
       <r>     9.3053     2.6175    58.4057 </r>
       <r>     9.3779     2.3893    58.5791 </r>
       <r>     9.4505     2.5350    58.7631 </r>
       <r>     9.5231     2.9222    58.9751 </r>
       <r>     9.5957     3.1925    59.2068 </r>
       <r>     9.6682     3.2425    59.4422 </r>
       <r>     9.7408     3.0876    59.6662 </r>
       <r>     9.8134     2.5702    59.8528 </r>
       <r>     9.8860     1.6352    59.9715 </r>
       <r>     9.9585     0.6452    60.0183 </r>
       <r>    10.0311     0.0359    60.0209 </r>
       <r>    10.1037    -0.1364    60.0110 </r>
       <r>    10.1763    -0.0989    60.0038 </r>
       <r>    10.2488    -0.0395    60.0009 </r>
       <r>    10.3214    -0.0106    60.0002 </r>
       <r>    10.3940    -0.0020    60.0000 </r>
       <r>    10.4666    -0.0003    60.0000 </r>
       <r>    10.5391    -0.0000    60.0000 </r>
       <r>    10.6117    -0.0000    60.0000 </r>
       <r>    10.6843    -0.0000    60.0000 </r>
       <r>    10.7569    -0.0000    60.0000 </r>
       <r>    10.8294    -0.0000    60.0000 </r>
       <r>    10.9020    -0.0000    60.0000 </r>
       <r>    10.9746    -0.0000    60.0000 </r>
       <r>    11.0472    -0.0000    60.0000 </r>
       <r>    11.1197     0.0000    60.0000 </r>
       <r>    11.1923     0.0000    60.0000 </r>
       <r>    11.2649     0.0000    60.0000 </r>
       <r>    11.3375     0.0000    60.0000 </r>
       <r>    11.4100     0.0000    60.0000 </r>
       <r>    11.4826     0.0000    60.0000 </r>
       <r>    11.5552     0.0000    60.0000 </r>
       <r>    11.6278     0.0000    60.0000 </r>
       <r>    11.7004     0.0000    60.0000 </r>
       <r>    11.7729     0.0000    60.0000 </r>
      </set>
     </set>
    </array>
   </total>
  </dos>
 </calculation>
 <structure name="finalpos" >
  <crystal>
   <varray name="basis" >
    <v>       3.63000011       0.00000000       0.00000000 </v>
    <v>       0.00000000       2.56679773       0.00000000 </v>
    <v>       0.00000000       0.00000000      23.98379135 </v>
   </varray>
   <i name="volume">    223.46840188 </i>
   <varray name="rec_basis" >
    <v>       0.27548208       0.00000000       0.00000000 </v>
    <v>       0.00000000       0.38959050       0.00000000 </v>
    <v>       0.00000000       0.00000000       0.04169483 </v>
   </varray>
  </crystal>
  <varray name="positions" >
   <v>       0.00000000      -0.00086796      -0.00077388 </v>
   <v>       0.50000000       0.49532238       0.04647326 </v>
   <v>       0.00000000      -0.01593093       0.10064857 </v>
   <v>       0.50000000       0.47178779       0.15295226 </v>
   <v>       0.00000000      -0.03939873       0.20558861 </v>
   <v>       0.50000000       0.44986427       0.25809931 </v>
   <v>       0.00000000      -0.06520190       0.31210440 </v>
   <v>       0.50000000       0.42739444       0.35939788 </v>
   <v>       0.50000000       0.15928403       0.44303259 </v>
   <v>       0.50000000       0.32325623       0.46980073 </v>
  </varray>
 </structure>
</modeling>
