unknown system                          
           1
     3.630000    0.000000    0.000000
     0.000000    2.566798    0.000000
     0.000000    0.000000   23.983791
   Cu   H 
     8     2
Direct configuration=     1
   0.00000000  0.00000000  0.00000000
   0.50000000  0.50000000  0.05351109
   0.00000000  0.00000000  0.10468148
   0.50000000  0.50000000  0.15792996
   0.00000000  0.00000000  0.21070899
   0.50000000  0.50000000  0.26289048
   0.00000000  0.00000000  0.31711592
   0.50000000  0.50000000  0.36467590
   0.50000000  0.00000000  0.42690792
   0.50000000  0.20550963  0.44890201
Direct configuration=     2
   0.00000000 -0.00000288  0.00110017
   0.50000000  0.49999749  0.05248407
   0.00000000  0.00003036  0.10471281
   0.50000000  0.49994950  0.15817592
   0.00000000 -0.00001442  0.21023632
   0.50000000  0.50028365  0.26309469
   0.00000000 -0.00067050  0.31695185
   0.50000000  0.49380075  0.36374174
   0.50000000 -0.01130231  0.42556310
   0.50000000  0.22343799  0.45126307
Direct configuration=     3
   0.00000000 -0.00000165  0.00062809
   0.50000000  0.49999857  0.05292476
   0.00000000  0.00001733  0.10469937
   0.50000000  0.49997117  0.15807038
   0.00000000 -0.00000823  0.21043915
   0.50000000  0.50016194  0.26300706
   0.00000000 -0.00038279  0.31702225
   0.50000000  0.49646085  0.36414259
   0.50000000 -0.00645248  0.42614016
   0.50000000  0.21574492  0.45024994
Direct configuration=     4
   0.00000000  0.00000619  0.00177510
   0.50000000  0.50001580  0.05190054
   0.00000000  0.00006278  0.10475342
   0.50000000  0.49992505  0.15827312
   0.00000000  0.00000282  0.20996273
   0.50000000  0.50049637  0.26312811
   0.00000000 -0.00146183  0.31677565
   0.50000000  0.48936963  0.36343254
   0.50000000 -0.00012785  0.42652906
   0.50000000  0.21722067  0.45079346
Direct configuration=     5
   0.00000000  0.00001927  0.00368879
   0.50000000  0.50004456  0.05019172
   0.00000000  0.00013860  0.10484360
   0.50000000  0.49984812  0.15861138
   0.00000000  0.00002126  0.20916789
   0.50000000  0.50105434  0.26333007
   0.00000000 -0.00326213  0.31636422
   0.50000000  0.47753856  0.36224789
   0.50000000  0.01042424  0.42717789
   0.50000000  0.21968281  0.45170029
Direct configuration=     6
   0.00000000 -0.00000091  0.00384095
   0.50000000  0.50003145  0.05031926
   0.00000000  0.00011525  0.10500496
   0.50000000  0.49984130  0.15822315
   0.00000000  0.00006718  0.20915186
   0.50000000  0.50118566  0.26265414
   0.00000000 -0.00671696  0.31598345
   0.50000000  0.47313885  0.36238333
   0.50000000  0.01950464  0.42789000
   0.50000000  0.21834317  0.45187263
Direct configuration=     7
   0.00000000 -0.00000208  0.00384982
   0.50000000  0.50003068  0.05032670
   0.00000000  0.00011389  0.10501436
   0.50000000  0.49984090  0.15820053
   0.00000000  0.00006985  0.20915093
   0.50000000  0.50119332  0.26261475
   0.00000000 -0.00691830  0.31596126
   0.50000000  0.47288245  0.36239122
   0.50000000  0.02003382  0.42793150
   0.50000000  0.21826510  0.45188268
Direct configuration=     8
   0.00000000 -0.00003171  0.00387664
   0.50000000  0.50000254  0.05046256
   0.00000000  0.00007849  0.10509626
   0.50000000  0.49982646  0.15793429
   0.00000000  0.00008806  0.20913981
   0.50000000  0.50112665  0.26222495
   0.00000000 -0.00933341  0.31572726
   0.50000000  0.47017775  0.36240795
   0.50000000  0.02318479  0.42808509
   0.50000000  0.22039002  0.45236893
Direct configuration=     9
   0.00000000 -0.00012060  0.00395708
   0.50000000  0.49991810  0.05087015
   0.00000000 -0.00002772  0.10534195
   0.50000000  0.49978314  0.15713559
   0.00000000  0.00014266  0.20910645
   0.50000000  0.50092665  0.26105555
   0.00000000 -0.01657875  0.31502526
   0.50000000  0.46206367  0.36245815
   0.50000000  0.03263772  0.42854586
   0.50000000  0.22676477  0.45382770
Direct configuration=    10
   0.00000000 -0.00016004  0.00399277
   0.50000000  0.49988064  0.05105099
   0.00000000 -0.00007484  0.10545095
   0.50000000  0.49976391  0.15678123
   0.00000000  0.00016689  0.20909165
   0.50000000  0.50083791  0.26053673
   0.00000000 -0.01979329  0.31471380
   0.50000000  0.45846370  0.36248042
   0.50000000  0.03683169  0.42875029
   0.50000000  0.22959306  0.45447491
Direct configuration=    11
   0.00000000 -0.00022202  0.00400941
   0.50000000  0.49981748  0.05112082
   0.00000000 -0.00014959  0.10536775
   0.50000000  0.49975644  0.15657310
   0.00000000  0.00021026  0.20890441
   0.50000000  0.49982310  0.26045568
   0.00000000 -0.02346737  0.31446761
   0.50000000  0.45493901  0.36214947
   0.50000000  0.04293472  0.42923711
   0.50000000  0.23186761  0.45503839
Direct configuration=    12
   0.00000000 -0.00040797  0.00405934
   0.50000000  0.49962800  0.05133033
   0.00000000 -0.00037383  0.10511815
   0.50000000  0.49973403  0.15594868
   0.00000000  0.00034036  0.20834266
   0.50000000  0.49677866  0.26021253
   0.00000000 -0.03448963  0.31372904
   0.50000000  0.44436495  0.36115665
   0.50000000  0.06124381  0.43069756
   0.50000000  0.23869127  0.45672881
Direct configuration=    13
   0.00000000 -0.00077986  0.00415918
   0.50000000  0.49924903  0.05174934
   0.00000000 -0.00082233  0.10461894
   0.50000000  0.49968920  0.15469985
   0.00000000  0.00060057  0.20721918
   0.50000000  0.49068978  0.25972624
   0.00000000 -0.05653415  0.31225190
   0.50000000  0.42321683  0.35917099
   0.50000000  0.09786199  0.43361847
   0.50000000  0.25233858  0.46010965
Direct configuration=    14
   0.00000000 -0.00058464  0.00410677
   0.50000000  0.49944796  0.05152939
   0.00000000 -0.00058690  0.10488098
   0.50000000  0.49971273  0.15535539
   0.00000000  0.00046398  0.20780892
   0.50000000  0.49388596  0.25998150
   0.00000000 -0.04496251  0.31302728
   0.50000000  0.43431793  0.36021330
   0.50000000  0.07864032  0.43208522
   0.50000000  0.24517481  0.45833497
Direct configuration=    15
   0.00000000 -0.00063165  0.00408722
   0.50000000  0.49939917  0.05148692
   0.00000000 -0.00063517  0.10476254
   0.50000000  0.49973577  0.15530494
   0.00000000  0.00039234  0.20765035
   0.50000000  0.49261888  0.25988657
   0.00000000 -0.04787591  0.31285750
   0.50000000  0.43150079  0.35992599
   0.50000000  0.08255393  0.43235072
   0.50000000  0.24845148  0.45901100
Direct configuration=    16
   0.00000000 -0.00070200  0.00405796
   0.50000000  0.49932615  0.05142335
   0.00000000 -0.00070741  0.10458524
   0.50000000  0.49977025  0.15522942
   0.00000000  0.00028510  0.20741301
   0.50000000  0.49072230  0.25974447
   0.00000000 -0.05223670  0.31260338
   0.50000000  0.42728409  0.35949593
   0.50000000  0.08841183  0.43274811
   0.50000000  0.25335602  0.46002287
Direct configuration=    17
   0.00000000 -0.00071638  0.00405198
   0.50000000  0.49931123  0.05141036
   0.00000000 -0.00072218  0.10454901
   0.50000000  0.49977730  0.15521398
   0.00000000  0.00026318  0.20736450
   0.50000000  0.49033468  0.25971543
   0.00000000 -0.05312795  0.31255144
   0.50000000  0.42642229  0.35940803
   0.50000000  0.08960906  0.43282933
   0.50000000  0.25435840  0.46022968
Direct configuration=    18
   0.00000000 -0.00075655  0.00397452
   0.50000000  0.49926954  0.05124492
   0.00000000 -0.00074255  0.10444345
   0.50000000  0.49979315  0.15532964
   0.00000000 -0.00002352  0.20730405
   0.50000000  0.48911301  0.25958240
   0.00000000 -0.05433153  0.31251466
   0.50000000  0.42519748  0.35931287
   0.50000000  0.09218074  0.43310267
   0.50000000  0.25580986  0.46051456
Direct configuration=    19
   0.00000000 -0.00087705  0.00374215
   0.50000000  0.49914448  0.05074860
   0.00000000 -0.00080365  0.10412679
   0.50000000  0.49984071  0.15567659
   0.00000000 -0.00088364  0.20712271
   0.50000000  0.48544797  0.25918333
   0.00000000 -0.05794227  0.31240432
   0.50000000  0.42152305  0.35902737
   0.50000000  0.09989578  0.43392268
   0.50000000  0.26016425  0.46136919
Direct configuration=    20
   0.00000000 -0.00111805  0.00327741
   0.50000000  0.49889436  0.04975596
   0.00000000 -0.00092586  0.10349347
   0.50000000  0.49993582  0.15637051
   0.00000000 -0.00260388  0.20676002
   0.50000000  0.47811790  0.25838519
   0.00000000 -0.06516374  0.31218364
   0.50000000  0.41417420  0.35845639
   0.50000000  0.11532585  0.43556271
   0.50000000  0.26887301  0.46307846
Direct configuration=    21
   0.00000000 -0.00102104  0.00346448
   0.50000000  0.49899504  0.05015552
   0.00000000 -0.00087667  0.10374840
   0.50000000  0.49989754  0.15609119
   0.00000000 -0.00191143  0.20690602
   0.50000000  0.48106848  0.25870646
   0.00000000 -0.06225688  0.31227247
   0.50000000  0.41713234  0.35868623
   0.50000000  0.10911478  0.43490255
   0.50000000  0.26536747  0.46239042
Direct configuration=    22
   0.00000000 -0.00104944  0.00340970
   0.50000000  0.49896556  0.05003852
   0.00000000 -0.00089108  0.10367375
   0.50000000  0.49990875  0.15617298
   0.00000000 -0.00211419  0.20686327
   0.50000000  0.48020448  0.25861239
   0.00000000 -0.06310808  0.31224646
   0.50000000  0.41626612  0.35861892
   0.50000000  0.11093354  0.43509586
   0.50000000  0.26639398  0.46259190
Direct configuration=    23
   0.00000000 -0.00112026  0.00307902
   0.50000000  0.49889808  0.04977048
   0.00000000 -0.00086136  0.10357548
   0.50000000  0.49984132  0.15600335
   0.00000000 -0.00345852  0.20683402
   0.50000000  0.47751267  0.25857007
   0.00000000 -0.06454478  0.31223387
   0.50000000  0.41531014  0.35859809
   0.50000000  0.11437548  0.43553947
   0.50000000  0.26955685  0.46311989
Direct configuration=    24
   0.00000000 -0.00133270  0.00208696
   0.50000000  0.49869563  0.04896635
   0.00000000 -0.00077221  0.10328068
   0.50000000  0.49963903  0.15549446
   0.00000000 -0.00749148  0.20674628
   0.50000000  0.46943725  0.25844312
   0.00000000 -0.06885487  0.31219612
   0.50000000  0.41244219  0.35853560
   0.50000000  0.12470132  0.43687030
   0.50000000  0.27904547  0.46470387
Direct configuration=    25
   0.00000000 -0.00175758  0.00010286
   0.50000000  0.49829074  0.04735810
   0.00000000 -0.00059390  0.10269108
   0.50000000  0.49923446  0.15447668
   0.00000000 -0.01555740  0.20657079
   0.50000000  0.45328640  0.25818922
   0.00000000 -0.07747506  0.31212062
   0.50000000  0.40670629  0.35841061
   0.50000000  0.14535299  0.43953195
   0.50000000  0.29802270  0.46787183
Direct configuration=    26
   0.00000000 -0.00180618 -0.00009302
   0.50000000  0.49825987  0.04719812
   0.00000000 -0.00057660  0.10258090
   0.50000000  0.49904083  0.15433443
   0.00000000 -0.01659972  0.20654204
   0.50000000  0.45163843  0.25816885
   0.00000000 -0.07839852  0.31211259
   0.50000000  0.40620174  0.35843623
   0.50000000  0.14806982  0.43991482
   0.50000000  0.29967997  0.46812878
Direct configuration=    27
   0.00000000 -0.00195198 -0.00068063
   0.50000000  0.49816725  0.04671817
   0.00000000 -0.00052471  0.10225035
   0.50000000  0.49845993  0.15390766
   0.00000000 -0.01972667  0.20645580
   0.50000000  0.44669452  0.25810776
   0.00000000 -0.08116890  0.31208851
   0.50000000  0.40468809  0.35851307
   0.50000000  0.15622032  0.44106342
   0.50000000  0.30465178  0.46889963
Direct configuration=    28
   0.00000000 -0.00197047 -0.00075515
   0.50000000  0.49815550  0.04665730
   0.00000000 -0.00051813  0.10220843
   0.50000000  0.49838626  0.15385354
   0.00000000 -0.02012324  0.20644486
   0.50000000  0.44606751  0.25810001
   0.00000000 -0.08152025  0.31208545
   0.50000000  0.40449612  0.35852281
   0.50000000  0.15725400  0.44120909
   0.50000000  0.30528233  0.46899739
Direct configuration=    29
   0.00000000 -0.00195891 -0.00070856
   0.50000000  0.49816284  0.04669536
   0.00000000 -0.00052224  0.10223464
   0.50000000  0.49843232  0.15388738
   0.00000000 -0.01987528  0.20645170
   0.50000000  0.44645955  0.25810486
   0.00000000 -0.08130057  0.31208736
   0.50000000  0.40461615  0.35851672
   0.50000000  0.15660769  0.44111801
   0.50000000  0.30488808  0.46893627
Direct configuration=    30
   0.00000000 -0.00196670 -0.00073998
   0.50000000  0.49815789  0.04666970
   0.00000000 -0.00051947  0.10221696
   0.50000000  0.49840126  0.15386456
   0.00000000 -0.02004251  0.20644709
   0.50000000  0.44619515  0.25810159
   0.00000000 -0.08144872  0.31208607
   0.50000000  0.40453520  0.35852083
   0.50000000  0.15704357  0.44117943
   0.50000000  0.30515397  0.46897749
Direct configuration=    31
   0.00000000 -0.00196281 -0.00072427
   0.50000000  0.49816037  0.04668253
   0.00000000 -0.00052085  0.10222580
   0.50000000  0.49841679  0.15387597
   0.00000000 -0.01995889  0.20644939
   0.50000000  0.44632735  0.25810322
   0.00000000 -0.08137465  0.31208672
   0.50000000  0.40457567  0.35851878
   0.50000000  0.15682563  0.44114872
   0.50000000  0.30502102  0.46895688
Direct configuration=    32
   0.00000000 -0.00196464 -0.00073166
   0.50000000  0.49815920  0.04667649
   0.00000000 -0.00052020  0.10222164
   0.50000000  0.49840948  0.15387060
   0.00000000 -0.01999824  0.20644831
   0.50000000  0.44626515  0.25810245
   0.00000000 -0.08140950  0.31208642
   0.50000000  0.40455663  0.35851974
   0.50000000  0.15692817  0.44116317
   0.50000000  0.30508357  0.46896658
Direct configuration=    33
   0.00000000 -0.00196309 -0.00072543
   0.50000000  0.49816019  0.04668158
   0.00000000 -0.00052075  0.10222515
   0.50000000  0.49841565  0.15387513
   0.00000000 -0.01996505  0.20644922
   0.50000000  0.44631761  0.25810310
   0.00000000 -0.08138010  0.31208667
   0.50000000  0.40457269  0.35851893
   0.50000000  0.15684168  0.44115098
   0.50000000  0.30503082  0.46895840
Direct configuration=    34
   0.00000000 -0.00196387 -0.00072855
   0.50000000  0.49815969  0.04667904
   0.00000000 -0.00052048  0.10222340
   0.50000000  0.49841256  0.15387286
   0.00000000 -0.01998164  0.20644877
   0.50000000  0.44629138  0.25810278
   0.00000000 -0.08139480  0.31208654
   0.50000000  0.40456466  0.35851933
   0.50000000  0.15688493  0.44115708
   0.50000000  0.30505720  0.46896249
Direct configuration=    35
   0.00000000 -0.00196366 -0.00072772
   0.50000000  0.49815983  0.04667971
   0.00000000 -0.00052055  0.10222386
   0.50000000  0.49841338  0.15387346
   0.00000000 -0.01997723  0.20644889
   0.50000000  0.44629836  0.25810286
   0.00000000 -0.08139089  0.31208658
   0.50000000  0.40456680  0.35851923
   0.50000000  0.15687343  0.44115546
   0.50000000  0.30505018  0.46896140
Direct configuration=    36
   0.00000000 -0.00196594 -0.00068946
   0.50000000  0.49818241  0.04669672
   0.00000000 -0.00053847  0.10213417
   0.50000000  0.49811448  0.15383509
   0.00000000 -0.02032100  0.20641989
   0.50000000  0.44645864  0.25810512
   0.00000000 -0.08140054  0.31208633
   0.50000000  0.40473184  0.35857333
   0.50000000  0.15698220  0.44118118
   0.50000000  0.30526600  0.46898136
Direct configuration=    37
   0.00000000 -0.00197276 -0.00057468
   0.50000000  0.49825017  0.04674772
   0.00000000 -0.00059221  0.10186510
   0.50000000  0.49721778  0.15371999
   0.00000000 -0.02135230  0.20633289
   0.50000000  0.44693951  0.25811190
   0.00000000 -0.08142946  0.31208559
   0.50000000  0.40522697  0.35873566
   0.50000000  0.15730850  0.44125835
   0.50000000  0.30591344  0.46904123
Direct configuration=    38
   0.00000000 -0.00198642 -0.00034513
   0.50000000  0.49838569  0.04684972
   0.00000000 -0.00069971  0.10132694
   0.50000000  0.49542438  0.15348977
   0.00000000 -0.02341490  0.20615890
   0.50000000  0.44790125  0.25812545
   0.00000000 -0.08148732  0.31208411
   0.50000000  0.40621723  0.35906031
   0.50000000  0.15796110  0.44141269
   0.50000000  0.30720833  0.46916098
Direct configuration=    39
   0.00000000 -0.00199202 -0.00025095
   0.50000000  0.49844129  0.04689157
   0.00000000 -0.00074381  0.10110615
   0.50000000  0.49468858  0.15339531
   0.00000000 -0.02426115  0.20608751
   0.50000000  0.44829583  0.25813101
   0.00000000 -0.08151106  0.31208350
   0.50000000  0.40662351  0.35919351
   0.50000000  0.15822885  0.44147601
   0.50000000  0.30773960  0.46921011
Direct configuration=    40
   0.00000000 -0.00200323 -0.00006259
   0.50000000  0.49855250  0.04697528
   0.00000000 -0.00083202  0.10066456
   0.50000000  0.49321698  0.15320641
   0.00000000 -0.02595364  0.20594473
   0.50000000  0.44908500  0.25814214
   0.00000000 -0.08155853  0.31208228
   0.50000000  0.40743608  0.35945991
   0.50000000  0.15876435  0.44160265
   0.50000000  0.30880214  0.46930837
Direct configuration=    41
   0.00000000 -0.00199525 -0.00019673
   0.50000000  0.49847331  0.04691567
   0.00000000 -0.00076921  0.10097902
   0.50000000  0.49426491  0.15334093
   0.00000000 -0.02474841  0.20604640
   0.50000000  0.44852303  0.25813422
   0.00000000 -0.08152473  0.31208315
   0.50000000  0.40685745  0.35927021
   0.50000000  0.15838302  0.44151247
   0.50000000  0.30804550  0.46923840
Direct configuration=    42
   0.00000000 -0.00199924 -0.00012966
   0.50000000  0.49851290  0.04694547
   0.00000000 -0.00080061  0.10082179
   0.50000000  0.49374095  0.15327367
   0.00000000 -0.02535103  0.20599557
   0.50000000  0.44880402  0.25813818
   0.00000000 -0.08154163  0.31208271
   0.50000000  0.40714677  0.35936506
   0.50000000  0.15857369  0.44155756
   0.50000000  0.30842382  0.46927339
Direct configuration=    43
   0.00000000 -0.00199696 -0.00016787
   0.50000000  0.49849034  0.04692849
   0.00000000 -0.00078272  0.10091138
   0.50000000  0.49403950  0.15331199
   0.00000000 -0.02500766  0.20602453
   0.50000000  0.44864391  0.25813592
   0.00000000 -0.08153200  0.31208296
   0.50000000  0.40698192  0.35931102
   0.50000000  0.15846505  0.44153187
   0.50000000  0.30820826  0.46925345
Direct configuration=    44
   0.00000000 -0.00199810 -0.00014877
   0.50000000  0.49850162  0.04693698
   0.00000000 -0.00079166  0.10086658
   0.50000000  0.49389022  0.15329283
   0.00000000 -0.02517935  0.20601005
   0.50000000  0.44872397  0.25813705
   0.00000000 -0.08153682  0.31208284
   0.50000000  0.40706434  0.35933804
   0.50000000  0.15851937  0.44154471
   0.50000000  0.30831604  0.46926342
Direct configuration=    45
   0.00000000 -0.00199737 -0.00016110
   0.50000000  0.49849434  0.04693150
   0.00000000 -0.00078589  0.10089551
   0.50000000  0.49398661  0.15330520
   0.00000000 -0.02506849  0.20601940
   0.50000000  0.44867228  0.25813632
   0.00000000 -0.08153371  0.31208292
   0.50000000  0.40701112  0.35932059
   0.50000000  0.15848429  0.44153642
   0.50000000  0.30824645  0.46925698
Direct configuration=    46
   0.00000000 -0.00193184 -0.00020186
   0.50000000  0.49858713  0.04692798
   0.00000000 -0.00112884  0.10091488
   0.50000000  0.49277294  0.15326771
   0.00000000 -0.02603291  0.20587510
   0.50000000  0.44910495  0.25815280
   0.00000000 -0.08088133  0.31211781
   0.50000000  0.40771005  0.35938910
   0.50000000  0.15837457  0.44157252
   0.50000000  0.30893491  0.46930770
Direct configuration=    47
   0.00000000 -0.00185966 -0.00024675
   0.50000000  0.49868934  0.04692410
   0.00000000 -0.00150659  0.10093621
   0.50000000  0.49143617  0.15322641
   0.00000000 -0.02709515  0.20571616
   0.50000000  0.44958150  0.25817096
   0.00000000 -0.08016278  0.31215624
   0.50000000  0.40847987  0.35946456
   0.50000000  0.15825372  0.44161228
   0.50000000  0.30969321  0.46936356
Direct configuration=    48
   0.00000000 -0.00171530 -0.00033652
   0.50000000  0.49889375  0.04691635
   0.00000000 -0.00226207  0.10097889
   0.50000000  0.48876264  0.15314382
   0.00000000 -0.02921962  0.20539828
   0.50000000  0.45053460  0.25820727
   0.00000000 -0.07872568  0.31223309
   0.50000000  0.41001951  0.35961548
   0.50000000  0.15801201  0.44169180
   0.50000000  0.31120979  0.46947528
Direct configuration=    49
   0.00000000 -0.00179107 -0.00028940
   0.50000000  0.49878646  0.04692042
   0.00000000 -0.00186553  0.10095649
   0.50000000  0.49016592  0.15318717
   0.00000000 -0.02810453  0.20556513
   0.50000000  0.45003434  0.25818821
   0.00000000 -0.07947998  0.31219275
   0.50000000  0.40921139  0.35953626
   0.50000000  0.15813888  0.44165006
   0.50000000  0.31041377  0.46941664
Direct configuration=    50
   0.00000000 -0.00175317 -0.00031297
   0.50000000  0.49884012  0.04691838
   0.00000000 -0.00206387  0.10096769
   0.50000000  0.48946403  0.15316549
   0.00000000 -0.02866228  0.20548168
   0.50000000  0.45028456  0.25819775
   0.00000000 -0.07910270  0.31221293
   0.50000000  0.40961559  0.35957588
   0.50000000  0.15807542  0.44167094
   0.50000000  0.31081193  0.46944597
Direct configuration=    51
   0.00000000 -0.00167852 -0.00035746
   0.50000000  0.49886866  0.04689517
   0.00000000 -0.00251203  0.10098874
   0.50000000  0.48837616  0.15315519
   0.00000000 -0.02940835  0.20541597
   0.50000000  0.45049714  0.25819992
   0.00000000 -0.07836503  0.31222722
   0.50000000  0.41029628  0.35960353
   0.50000000  0.15837505  0.44178447
   0.50000000  0.31106028  0.46941099
Direct configuration=    52
   0.00000000 -0.00159843 -0.00040519
   0.50000000  0.49889927  0.04687026
   0.00000000 -0.00299281  0.10101132
   0.50000000  0.48720913  0.15314415
   0.00000000 -0.03020872  0.20534549
   0.50000000  0.45072519  0.25820225
   0.00000000 -0.07757369  0.31224254
   0.50000000  0.41102650  0.35963319
   0.50000000  0.15869648  0.44190626
   0.50000000  0.31132671  0.46937346
Direct configuration=    53
   0.00000000 -0.00151286 -0.00044156
   0.50000000  0.49884638  0.04683147
   0.00000000 -0.00355618  0.10100647
   0.50000000  0.48622523  0.15315269
   0.00000000 -0.03075967  0.20536654
   0.50000000  0.45072121  0.25819387
   0.00000000 -0.07677565  0.31223622
   0.50000000  0.41175166  0.35961820
   0.50000000  0.15864335  0.44196172
   0.50000000  0.31192616  0.46939812
Direct configuration=    54
   0.00000000 -0.00137507 -0.00050014
   0.50000000  0.49876120  0.04676900
   0.00000000 -0.00446334  0.10099866
   0.50000000  0.48464090  0.15316644
   0.00000000 -0.03164682  0.20540045
   0.50000000  0.45071481  0.25818039
   0.00000000 -0.07549061  0.31222604
   0.50000000  0.41291935  0.35959405
   0.50000000  0.15855779  0.44205101
   0.50000000  0.31289143  0.46943784
Direct configuration=    55
   0.00000000 -0.00109948 -0.00061729
   0.50000000  0.49859085  0.04664406
   0.00000000 -0.00627768  0.10098304
   0.50000000  0.48147225  0.15319394
   0.00000000 -0.03342114  0.20546826
   0.50000000  0.45070200  0.25815342
   0.00000000 -0.07292053  0.31220568
   0.50000000  0.41525473  0.35954576
   0.50000000  0.15838667  0.44222960
   0.50000000  0.31482196  0.46951727
Direct configuration=    56
   0.00000000 -0.00054831 -0.00085159
   0.50000000  0.49825014  0.04639419
   0.00000000 -0.00990634  0.10095180
   0.50000000  0.47513494  0.15324893
   0.00000000 -0.03696978  0.20560389
   0.50000000  0.45067638  0.25809947
   0.00000000 -0.06778037  0.31216497
   0.50000000  0.41992549  0.35944917
   0.50000000  0.15804445  0.44258678
   0.50000000  0.31868303  0.46967614
Direct configuration=    57
   0.00000000 -0.00044483 -0.00084771
   0.50000000  0.49746379  0.04638769
   0.00000000 -0.01219153  0.10081606
   0.50000000  0.47302238  0.15315097
   0.00000000 -0.03834192  0.20565241
   0.50000000  0.45047354  0.25810771
   0.00000000 -0.06615350  0.31213457
   0.50000000  0.42286117  0.35941642
   0.50000000  0.15870559  0.44284885
   0.50000000  0.32011494  0.46965677
Direct configuration=    58
   0.00000000 -0.00048371 -0.00084917
   0.50000000  0.49775927  0.04639013
   0.00000000 -0.01133284  0.10086706
   0.50000000  0.47381620  0.15318778
   0.00000000 -0.03782632  0.20563418
   0.50000000  0.45054976  0.25810461
   0.00000000 -0.06676482  0.31214599
   0.50000000  0.42175805  0.35942873
   0.50000000  0.15845716  0.44275037
   0.50000000  0.31957688  0.46966405
Direct configuration=    59
   0.00000000 -0.00046118 -0.00084832
   0.50000000  0.49758805  0.04638871
   0.00000000 -0.01183042  0.10083751
   0.50000000  0.47335621  0.15316645
   0.00000000 -0.03812509  0.20564474
   0.50000000  0.45050559  0.25810641
   0.00000000 -0.06641058  0.31213937
   0.50000000  0.42239727  0.35942160
   0.50000000  0.15860111  0.44280744
   0.50000000  0.31988867  0.46965983
Direct configuration=    60
   0.00000000 -0.00047612 -0.00084888
   0.50000000  0.49770155  0.04638965
   0.00000000 -0.01150057  0.10085710
   0.50000000  0.47366114  0.15318059
   0.00000000 -0.03792703  0.20563774
   0.50000000  0.45053487  0.25810522
   0.00000000 -0.06664541  0.31214376
   0.50000000  0.42197353  0.35942632
   0.50000000  0.15850568  0.44276961
   0.50000000  0.31968199  0.46966263
Direct configuration=    61
   0.00000000 -0.00046440 -0.00084844
   0.50000000  0.49761250  0.04638892
   0.00000000 -0.01175935  0.10084173
   0.50000000  0.47342191  0.15316949
   0.00000000 -0.03808242  0.20564324
   0.50000000  0.45051190  0.25810615
   0.00000000 -0.06646118  0.31214032
   0.50000000  0.42230597  0.35942262
   0.50000000  0.15858055  0.44279929
   0.50000000  0.31984414  0.46966043
Direct configuration=    62
   0.00000000 -0.00047026 -0.00084866
   0.50000000  0.49765703  0.04638928
   0.00000000 -0.01162996  0.10084941
   0.50000000  0.47354152  0.15317504
   0.00000000 -0.03800473  0.20564049
   0.50000000  0.45052339  0.25810568
   0.00000000 -0.06655329  0.31214204
   0.50000000  0.42213975  0.35942447
   0.50000000  0.15854312  0.44278445
   0.50000000  0.31976306  0.46966153
Direct configuration=    63
   0.00000000 -0.00046627 -0.00084851
   0.50000000  0.49762675  0.04638903
   0.00000000 -0.01171795  0.10084419
   0.50000000  0.47346018  0.15317127
   0.00000000 -0.03805756  0.20564236
   0.50000000  0.45051558  0.25810600
   0.00000000 -0.06649065  0.31214087
   0.50000000  0.42225278  0.35942321
   0.50000000  0.15856857  0.44279454
   0.50000000  0.31981819  0.46966078
Direct configuration=    64
   0.00000000 -0.00056538 -0.00080231
   0.50000000  0.49646037  0.04643581
   0.00000000 -0.01409898  0.10070243
   0.50000000  0.47227094  0.15303706
   0.00000000 -0.03897476  0.20564359
   0.50000000  0.45018427  0.25811880
   0.00000000 -0.06561280  0.31211586
   0.50000000  0.42522594  0.35939427
   0.50000000  0.15847521  0.44287598
   0.50000000  0.32214482  0.46980224
Direct configuration=    65
   0.00000000 -0.00052942 -0.00081908
   0.50000000  0.49688361  0.04641884
   0.00000000 -0.01323498  0.10075387
   0.50000000  0.47270248  0.15308576
   0.00000000 -0.03864194  0.20564314
   0.50000000  0.45030449  0.25811415
   0.00000000 -0.06593134  0.31212494
   0.50000000  0.42414709  0.35940477
   0.50000000  0.15850909  0.44284643
   0.50000000  0.32130057  0.46975091
Direct configuration=    66
   0.00000000 -0.00054945 -0.00080974
   0.50000000  0.49664787  0.04642829
   0.00000000 -0.01371623  0.10072522
   0.50000000  0.47246211  0.15305864
   0.00000000 -0.03882732  0.20564339
   0.50000000  0.45023753  0.25811674
   0.00000000 -0.06575392  0.31211988
   0.50000000  0.42474801  0.35939892
   0.50000000  0.15849022  0.44286289
   0.50000000  0.32177082  0.46977950
Direct configuration=    67
   0.00000000 -0.00053943 -0.00081441
   0.50000000  0.49676574  0.04642357
   0.00000000 -0.01347561  0.10073954
   0.50000000  0.47258229  0.15307220
   0.00000000 -0.03873463  0.20564327
   0.50000000  0.45027101  0.25811545
   0.00000000 -0.06584263  0.31212241
   0.50000000  0.42444755  0.35940185
   0.50000000  0.15849965  0.44285466
   0.50000000  0.32153569  0.46976521
Direct configuration=    68
   0.00000000 -0.00054629 -0.00081121
   0.50000000  0.49668503  0.04642680
   0.00000000 -0.01364037  0.10072973
   0.50000000  0.47250000  0.15306291
   0.00000000 -0.03879810  0.20564335
   0.50000000  0.45024808  0.25811633
   0.00000000 -0.06578189  0.31212068
   0.50000000  0.42465328  0.35939984
   0.50000000  0.15849319  0.44286029
   0.50000000  0.32169668  0.46977500
Direct configuration=    69
   0.00000000 -0.00054691 -0.00081092
   0.50000000  0.49667767  0.04642710
   0.00000000 -0.01365539  0.10072884
   0.50000000  0.47249250  0.15306207
   0.00000000 -0.03880389  0.20564336
   0.50000000  0.45024599  0.25811641
   0.00000000 -0.06577635  0.31212052
   0.50000000  0.42467205  0.35939966
   0.50000000  0.15849261  0.44286081
   0.50000000  0.32171137  0.46977589
Direct configuration=    70
   0.00000000 -0.00054636 -0.00081118
   0.50000000  0.49668421  0.04642684
   0.00000000 -0.01364204  0.10072963
   0.50000000  0.47249916  0.15306282
   0.00000000 -0.03879875  0.20564335
   0.50000000  0.45024785  0.25811634
   0.00000000 -0.06578127  0.31212066
   0.50000000  0.42465537  0.35939982
   0.50000000  0.15849313  0.44286035
   0.50000000  0.32169832  0.46977510
Direct configuration=    71
   0.00000000 -0.00054664 -0.00081105
   0.50000000  0.49668094  0.04642697
   0.00000000 -0.01364872  0.10072924
   0.50000000  0.47249583  0.15306244
   0.00000000 -0.03880132  0.20564336
   0.50000000  0.45024692  0.25811638
   0.00000000 -0.06577881  0.31212059
   0.50000000  0.42466371  0.35939974
   0.50000000  0.15849287  0.44286058
   0.50000000  0.32170485  0.46977549
Direct configuration=    72
   0.00000000 -0.00054655 -0.00081109
   0.50000000  0.49668191  0.04642693
   0.00000000 -0.01364673  0.10072935
   0.50000000  0.47249682  0.15306255
   0.00000000 -0.03880055  0.20564336
   0.50000000  0.45024720  0.25811636
   0.00000000 -0.06577954  0.31212061
   0.50000000  0.42466123  0.35939977
   0.50000000  0.15849295  0.44286051
   0.50000000  0.32170290  0.46977538
Direct configuration=    73
   0.00000000 -0.00089593 -0.00077064
   0.50000000  0.49520402  0.04647730
   0.00000000 -0.01612977  0.10064154
   0.50000000  0.47172606  0.15294265
   0.00000000 -0.03945080  0.20558384
   0.50000000  0.44983094  0.25809783
   0.00000000 -0.06515161  0.31210299
   0.50000000  0.42763237  0.35939772
   0.50000000  0.15935290  0.44304757
   0.50000000  0.32339146  0.46980294