  10  10   0   0
  0.2933178E+02  0.3630000E-09  0.3630000E-09  0.2226000E-08  0.5000000E-15
  1.000000000000000E-004
  CAR 
 unknown system                          
     11.54843831    -10.68778081  301      0.37123676      1.00000000
    -10.688  0.0000E+00  0.0000E+00  0.0000E+00  0.0000E+00
    -10.614  0.0000E+00  0.0000E+00  0.0000E+00  0.0000E+00
    -10.540  0.0000E+00  0.0000E+00  0.0000E+00  0.0000E+00
    -10.465  0.0000E+00  0.0000E+00  0.0000E+00  0.0000E+00
    -10.391  0.0000E+00  0.0000E+00  0.0000E+00  0.0000E+00
    -10.317 -0.6425E-31 -0.6435E-31 -0.4762E-32 -0.4770E-32
    -10.243 -0.2235E-28 -0.2239E-28 -0.1661E-29 -0.1664E-29
    -10.169 -0.5906E-26 -0.5915E-26 -0.4394E-27 -0.4401E-27
    -10.095 -0.1182E-23 -0.1184E-23 -0.8809E-25 -0.8821E-25
    -10.021 -0.1793E-21 -0.1796E-21 -0.1338E-22 -0.1340E-22
     -9.947 -0.2059E-19 -0.2061E-19 -0.1539E-20 -0.1541E-20
     -9.872 -0.1788E-17 -0.1790E-17 -0.1341E-18 -0.1342E-18
     -9.798 -0.1136E-15 -0.1137E-15 -0.8555E-17 -0.8564E-17
     -9.724 -0.5615E-14 -0.5620E-14 -0.4247E-15 -0.4251E-15
     -9.650 -0.2090E-12 -0.2092E-12 -0.1591E-13 -0.1593E-13
     -9.576 -0.5853E-11 -0.5858E-11 -0.4497E-12 -0.4501E-12
     -9.502 -0.1230E-09 -0.1231E-09 -0.9568E-11 -0.9576E-11
     -9.428 -0.1934E-08 -0.1935E-08 -0.1529E-09 -0.1530E-09
     -9.354 -0.2262E-07 -0.2264E-07 -0.1830E-08 -0.1831E-08
     -9.279 -0.1954E-06 -0.1956E-06 -0.1632E-07 -0.1633E-07
     -9.205 -0.1231E-05 -0.1232E-05 -0.1076E-06 -0.1076E-06
     -9.131 -0.5525E-05 -0.5527E-05 -0.5171E-06 -0.5173E-06
     -9.057 -0.1682E-04 -0.1682E-04 -0.1764E-05 -0.1764E-05
     -8.983 -0.2998E-04 -0.2998E-04 -0.3986E-05 -0.3986E-05
     -8.909 -0.7875E-05 -0.7858E-05 -0.4570E-05 -0.4569E-05
     -8.835  0.1150E-03  0.1151E-03  0.3958E-05  0.3962E-05
     -8.761  0.3460E-03  0.3461E-03  0.2960E-04  0.2961E-04
     -8.687  0.5473E-03  0.5474E-03  0.7017E-04  0.7018E-04
     -8.612  0.5433E-03  0.5432E-03  0.1104E-03  0.1104E-03
     -8.538  0.3376E-03  0.3376E-03  0.1355E-03  0.1355E-03
     -8.464  0.1089E-03  0.1088E-03  0.1435E-03  0.1435E-03
     -8.390 -0.9895E-05 -0.9911E-05  0.1428E-03  0.1428E-03
     -8.316 -0.2978E-04 -0.2978E-04  0.1406E-03  0.1406E-03
     -8.242 -0.1632E-04 -0.1632E-04  0.1394E-03  0.1394E-03
     -8.168 -0.5310E-05 -0.5308E-05  0.1390E-03  0.1390E-03
     -8.094 -0.1392E-05 -0.1392E-05  0.1389E-03  0.1389E-03
     -8.019 -0.1792E-05 -0.1793E-05  0.1388E-03  0.1388E-03
     -7.945 -0.8440E-05 -0.8443E-05  0.1381E-03  0.1381E-03
     -7.871 -0.3194E-04 -0.3195E-04  0.1358E-03  0.1358E-03
     -7.797 -0.8309E-04 -0.8311E-04  0.1296E-03  0.1296E-03
     -7.723 -0.1222E-03 -0.1223E-03  0.1205E-03  0.1205E-03
     -7.649  0.2580E-04  0.2587E-04  0.1225E-03  0.1225E-03
     -7.575  0.6267E-03  0.6269E-03  0.1689E-03  0.1689E-03
     -7.501  0.1681E-02  0.1681E-02  0.2935E-03  0.2935E-03
     -7.426  0.2598E-02  0.2598E-02  0.4860E-03  0.4861E-03
     -7.352  0.2618E-02  0.2618E-02  0.6801E-03  0.6801E-03
     -7.278  0.1709E-02  0.1708E-02  0.8067E-03  0.8068E-03
     -7.204  0.6211E-03  0.6208E-03  0.8528E-03  0.8528E-03
     -7.130  0.4347E-06  0.3406E-06  0.8528E-03  0.8528E-03
     -7.056 -0.1383E-03 -0.1383E-03  0.8426E-03  0.8426E-03
     -6.982 -0.8586E-04 -0.8584E-04  0.8362E-03  0.8362E-03
     -6.908 -0.3107E-04 -0.3106E-04  0.8339E-03  0.8339E-03
     -6.834 -0.1326E-04 -0.1325E-04  0.8329E-03  0.8329E-03
     -6.759 -0.3129E-04 -0.3130E-04  0.8306E-03  0.8306E-03
     -6.685 -0.1027E-03 -0.1027E-03  0.8230E-03  0.8230E-03
     -6.611 -0.2180E-03 -0.2181E-03  0.8068E-03  0.8068E-03
     -6.537 -0.1694E-03 -0.1693E-03  0.7943E-03  0.7943E-03
     -6.463  0.5387E-03  0.5389E-03  0.8342E-03  0.8342E-03
     -6.389  0.2193E-02  0.2193E-02  0.9967E-03  0.9968E-03
     -6.315  0.4026E-02  0.4026E-02  0.1295E-02  0.1295E-02
     -6.241  0.4539E-02  0.4539E-02  0.1632E-02  0.1632E-02
     -6.166  0.3239E-02  0.3238E-02  0.1872E-02  0.1872E-02
     -6.092  0.1306E-02  0.1305E-02  0.1968E-02  0.1968E-02
     -6.018  0.1156E-03  0.1155E-03  0.1977E-02  0.1977E-02
     -5.944 -0.6216E-04 -0.6212E-04  0.1972E-02  0.1972E-02
     -5.870  0.2308E-03  0.2309E-03  0.1990E-02  0.1990E-02
     -5.796  0.4294E-03  0.4294E-03  0.2021E-02  0.2021E-02
     -5.722  0.3540E-03  0.3539E-03  0.2048E-02  0.2048E-02
     -5.648  0.2983E-03  0.2983E-03  0.2070E-02  0.2070E-02
     -5.573  0.7223E-03  0.7224E-03  0.2123E-02  0.2123E-02
     -5.499  0.1611E-02  0.1611E-02  0.2243E-02  0.2243E-02
     -5.425  0.2253E-02  0.2253E-02  0.2410E-02  0.2410E-02
     -5.351  0.1999E-02  0.1999E-02  0.2558E-02  0.2558E-02
     -5.277  0.1064E-02  0.1064E-02  0.2637E-02  0.2637E-02
     -5.203  0.1760E-03  0.1759E-03  0.2650E-02  0.2650E-02
     -5.129 -0.2799E-03 -0.2800E-03  0.2629E-02  0.2629E-02
     -5.055 -0.2939E-03 -0.2938E-03  0.2607E-02  0.2607E-02
     -4.980  0.2898E-03  0.2900E-03  0.2629E-02  0.2629E-02
     -4.906  0.1677E-02  0.1677E-02  0.2753E-02  0.2753E-02
     -4.832  0.3412E-02  0.3412E-02  0.3006E-02  0.3006E-02
     -4.758  0.4451E-02  0.4451E-02  0.3336E-02  0.3336E-02
     -4.684  0.4397E-02  0.4397E-02  0.3662E-02  0.3662E-02
     -4.610  0.4037E-02  0.4037E-02  0.3961E-02  0.3961E-02
     -4.536  0.4274E-02  0.4274E-02  0.4278E-02  0.4278E-02
     -4.462  0.5208E-02  0.5208E-02  0.4664E-02  0.4664E-02
     -4.388  0.6214E-02  0.6214E-02  0.5124E-02  0.5124E-02
     -4.313  0.6451E-02  0.6451E-02  0.5602E-02  0.5603E-02
     -4.239  0.5757E-02  0.5757E-02  0.6029E-02  0.6029E-02
     -4.165  0.5202E-02  0.5202E-02  0.6415E-02  0.6415E-02
     -4.091  0.6186E-02  0.6186E-02  0.6873E-02  0.6873E-02
     -4.017  0.8923E-02  0.8923E-02  0.7535E-02  0.7535E-02
     -3.943  0.1223E-01  0.1223E-01  0.8441E-02  0.8441E-02
     -3.869  0.1497E-01  0.1497E-01  0.9551E-02  0.9551E-02
     -3.795  0.1692E-01  0.1692E-01  0.1080E-01  0.1080E-01
     -3.720  0.1749E-01  0.1749E-01  0.1210E-01  0.1210E-01
     -3.646  0.1569E-01  0.1569E-01  0.1326E-01  0.1326E-01
     -3.572  0.1242E-01  0.1242E-01  0.1418E-01  0.1418E-01
     -3.498  0.1023E-01  0.1023E-01  0.1494E-01  0.1494E-01
     -3.424  0.9739E-02  0.9739E-02  0.1567E-01  0.1567E-01
     -3.350  0.9511E-02  0.9511E-02  0.1637E-01  0.1637E-01
     -3.276  0.9451E-02  0.9451E-02  0.1707E-01  0.1707E-01
     -3.202  0.1070E-01  0.1070E-01  0.1786E-01  0.1786E-01
     -3.127  0.1311E-01  0.1311E-01  0.1884E-01  0.1884E-01
     -3.053  0.1560E-01  0.1560E-01  0.1999E-01  0.1999E-01
     -2.979  0.1749E-01  0.1749E-01  0.2129E-01  0.2129E-01
     -2.905  0.1818E-01  0.1818E-01  0.2264E-01  0.2264E-01
     -2.831  0.1784E-01  0.1784E-01  0.2396E-01  0.2396E-01
     -2.757  0.1861E-01  0.1861E-01  0.2534E-01  0.2534E-01
     -2.683  0.2193E-01  0.2193E-01  0.2696E-01  0.2696E-01
     -2.609  0.2537E-01  0.2537E-01  0.2884E-01  0.2884E-01
     -2.535  0.2562E-01  0.2562E-01  0.3074E-01  0.3074E-01
     -2.460  0.2310E-01  0.2310E-01  0.3245E-01  0.3245E-01
     -2.386  0.2093E-01  0.2093E-01  0.3401E-01  0.3401E-01
     -2.312  0.2047E-01  0.2047E-01  0.3552E-01  0.3552E-01
     -2.238  0.2060E-01  0.2060E-01  0.3705E-01  0.3705E-01
     -2.164  0.2032E-01  0.2032E-01  0.3856E-01  0.3856E-01
     -2.090  0.1995E-01  0.1995E-01  0.4003E-01  0.4003E-01
     -2.016  0.2037E-01  0.2037E-01  0.4154E-01  0.4154E-01
     -1.942  0.2232E-01  0.2232E-01  0.4320E-01  0.4320E-01
     -1.867  0.2519E-01  0.2519E-01  0.4507E-01  0.4507E-01
     -1.793  0.2698E-01  0.2698E-01  0.4707E-01  0.4707E-01
     -1.719  0.2723E-01  0.2723E-01  0.4908E-01  0.4908E-01
     -1.645  0.2785E-01  0.2785E-01  0.5115E-01  0.5115E-01
     -1.571  0.2973E-01  0.2973E-01  0.5335E-01  0.5335E-01
     -1.497  0.3137E-01  0.3137E-01  0.5568E-01  0.5568E-01
     -1.423  0.3141E-01  0.3141E-01  0.5801E-01  0.5801E-01
     -1.349  0.2993E-01  0.2993E-01  0.6022E-01  0.6022E-01
     -1.274  0.2724E-01  0.2724E-01  0.6224E-01  0.6224E-01
     -1.200  0.2312E-01  0.2313E-01  0.6396E-01  0.6396E-01
     -1.126  0.1774E-01  0.1774E-01  0.6527E-01  0.6527E-01
     -1.052  0.1206E-01  0.1206E-01  0.6617E-01  0.6617E-01
     -0.978  0.7064E-02  0.7064E-02  0.6669E-01  0.6669E-01
     -0.904  0.3273E-02  0.3273E-02  0.6693E-01  0.6693E-01
     -0.830  0.9246E-03  0.9245E-03  0.6700E-01  0.6700E-01
     -0.756 -0.1071E-03 -0.1071E-03  0.6699E-01  0.6699E-01
     -0.681 -0.3134E-03 -0.3134E-03  0.6697E-01  0.6697E-01
     -0.607 -0.2134E-03 -0.2134E-03  0.6695E-01  0.6695E-01
     -0.533 -0.9666E-04 -0.9666E-04  0.6695E-01  0.6695E-01
     -0.459 -0.4607E-04 -0.4607E-04  0.6694E-01  0.6694E-01
     -0.385 -0.6735E-04 -0.6735E-04  0.6694E-01  0.6694E-01
     -0.311 -0.1498E-03 -0.1498E-03  0.6693E-01  0.6693E-01
     -0.237 -0.1907E-03 -0.1907E-03  0.6691E-01  0.6691E-01
     -0.163  0.1263E-03  0.1263E-03  0.6692E-01  0.6692E-01
     -0.089  0.1165E-02  0.1165E-02  0.6701E-01  0.6701E-01
     -0.014  0.2738E-02  0.2738E-02  0.6721E-01  0.6721E-01
      0.060  0.3882E-02  0.3882E-02  0.6750E-01  0.6750E-01
      0.134  0.3887E-02  0.3887E-02  0.6779E-01  0.6779E-01
      0.208  0.3456E-02  0.3456E-02  0.6804E-01  0.6804E-01
      0.282  0.3821E-02  0.3821E-02  0.6833E-01  0.6833E-01
      0.356  0.4711E-02  0.4711E-02  0.6868E-01  0.6868E-01
      0.430  0.4547E-02  0.4547E-02  0.6901E-01  0.6901E-01
      0.504  0.2878E-02  0.2878E-02  0.6923E-01  0.6923E-01
      0.579  0.1252E-02  0.1252E-02  0.6932E-01  0.6932E-01
      0.653  0.1282E-02  0.1282E-02  0.6941E-01  0.6941E-01
      0.727  0.2787E-02  0.2787E-02  0.6962E-01  0.6962E-01
      0.801  0.4131E-02  0.4131E-02  0.6993E-01  0.6993E-01
      0.875  0.4158E-02  0.4158E-02  0.7024E-01  0.7024E-01
      0.949  0.3330E-02  0.3330E-02  0.7048E-01  0.7048E-01
      1.023  0.2612E-02  0.2611E-02  0.7068E-01  0.7068E-01
      1.097  0.2020E-02  0.2019E-02  0.7083E-01  0.7083E-01
      1.172  0.1192E-02  0.1192E-02  0.7091E-01  0.7091E-01
      1.246  0.6052E-03  0.6052E-03  0.7096E-01  0.7096E-01
      1.320  0.1195E-02  0.1195E-02  0.7105E-01  0.7105E-01
      1.394  0.2926E-02  0.2926E-02  0.7126E-01  0.7126E-01
      1.468  0.4373E-02  0.4373E-02  0.7159E-01  0.7159E-01
      1.542  0.4188E-02  0.4187E-02  0.7190E-01  0.7190E-01
      1.616  0.2664E-02  0.2664E-02  0.7210E-01  0.7210E-01
      1.690  0.1130E-02  0.1130E-02  0.7218E-01  0.7218E-01
      1.765  0.3029E-03  0.3028E-03  0.7220E-01  0.7220E-01
      1.839  0.1102E-03  0.1102E-03  0.7221E-01  0.7221E-01
      1.913  0.4818E-03  0.4819E-03  0.7225E-01  0.7225E-01
      1.987  0.1343E-02  0.1343E-02  0.7235E-01  0.7235E-01
      2.061  0.2114E-02  0.2114E-02  0.7250E-01  0.7250E-01
      2.135  0.2088E-02  0.2088E-02  0.7266E-01  0.7266E-01
      2.209  0.1376E-02  0.1376E-02  0.7276E-01  0.7276E-01
      2.283  0.8094E-03  0.8093E-03  0.7282E-01  0.7282E-01
      2.357  0.8264E-03  0.8265E-03  0.7288E-01  0.7288E-01
      2.432  0.1017E-02  0.1017E-02  0.7296E-01  0.7296E-01
      2.506  0.8496E-03  0.8496E-03  0.7302E-01  0.7302E-01
      2.580  0.3593E-03  0.3592E-03  0.7305E-01  0.7305E-01
      2.654  0.3096E-05  0.3073E-05  0.7305E-01  0.7305E-01
      2.728  0.1968E-03  0.1969E-03  0.7306E-01  0.7306E-01
      2.802  0.1014E-02  0.1014E-02  0.7314E-01  0.7314E-01
      2.876  0.1974E-02  0.1974E-02  0.7328E-01  0.7328E-01
      2.950  0.2277E-02  0.2276E-02  0.7345E-01  0.7345E-01
      3.025  0.1642E-02  0.1642E-02  0.7357E-01  0.7357E-01
      3.099  0.6341E-03  0.6339E-03  0.7362E-01  0.7362E-01
      3.173 -0.6120E-04 -0.6129E-04  0.7361E-01  0.7361E-01
      3.247 -0.2115E-03 -0.2115E-03  0.7360E-01  0.7360E-01
      3.321  0.1683E-03  0.1684E-03  0.7361E-01  0.7361E-01
      3.395  0.9794E-03  0.9796E-03  0.7368E-01  0.7368E-01
      3.469  0.1871E-02  0.1871E-02  0.7382E-01  0.7382E-01
      3.543  0.2549E-02  0.2549E-02  0.7401E-01  0.7401E-01
      3.618  0.3278E-02  0.3278E-02  0.7425E-01  0.7425E-01
      3.692  0.4210E-02  0.4211E-02  0.7457E-01  0.7457E-01
      3.766  0.4514E-02  0.4514E-02  0.7490E-01  0.7490E-01
      3.840  0.3380E-02  0.3380E-02  0.7515E-01  0.7515E-01
      3.914  0.1523E-02  0.1523E-02  0.7526E-01  0.7526E-01
      3.988  0.5443E-03  0.5443E-03  0.7531E-01  0.7531E-01
      4.062  0.1173E-02  0.1173E-02  0.7539E-01  0.7539E-01
      4.136  0.2703E-02  0.2704E-02  0.7559E-01  0.7559E-01
      4.210  0.3869E-02  0.3869E-02  0.7588E-01  0.7588E-01
      4.285  0.3994E-02  0.3994E-02  0.7618E-01  0.7618E-01
      4.359  0.3212E-02  0.3212E-02  0.7641E-01  0.7641E-01
      4.433  0.1990E-02  0.1989E-02  0.7656E-01  0.7656E-01
      4.507  0.1089E-02  0.1087E-02  0.7664E-01  0.7664E-01
      4.581  0.1462E-02  0.1458E-02  0.7675E-01  0.7675E-01
      4.655  0.3188E-02  0.3186E-02  0.7699E-01  0.7699E-01
      4.729  0.4788E-02  0.4790E-02  0.7734E-01  0.7734E-01
      4.803  0.4609E-02  0.4613E-02  0.7768E-01  0.7768E-01
      4.878  0.2809E-02  0.2811E-02  0.7789E-01  0.7789E-01
      4.952  0.1021E-02  0.1021E-02  0.7797E-01  0.7797E-01
      5.026  0.2944E-03  0.2934E-03  0.7799E-01  0.7799E-01
      5.100  0.3126E-03  0.3121E-03  0.7801E-01  0.7801E-01
      5.174  0.3611E-03  0.3616E-03  0.7804E-01  0.7804E-01
      5.248  0.1902E-03  0.1910E-03  0.7805E-01  0.7805E-01
      5.322 -0.7841E-04 -0.7787E-04  0.7805E-01  0.7805E-01
      5.396 -0.2962E-03 -0.2960E-03  0.7802E-01  0.7802E-01
      5.471 -0.2233E-03 -0.2228E-03  0.7801E-01  0.7801E-01
      5.545  0.6309E-03  0.6319E-03  0.7805E-01  0.7805E-01
      5.619  0.2556E-02  0.2557E-02  0.7824E-01  0.7824E-01
      5.693  0.4926E-02  0.4922E-02  0.7861E-01  0.7861E-01
      5.767  0.6502E-02  0.6489E-02  0.7909E-01  0.7909E-01
      5.841  0.6608E-02  0.6590E-02  0.7958E-01  0.7958E-01
      5.915  0.5563E-02  0.5553E-02  0.7999E-01  0.7999E-01
      5.989  0.4167E-02  0.4172E-02  0.8030E-01  0.8030E-01
      6.064  0.3103E-02  0.3119E-02  0.8053E-01  0.8053E-01
      6.138  0.2521E-02  0.2536E-02  0.8072E-01  0.8072E-01
      6.212  0.2229E-02  0.2234E-02  0.8088E-01  0.8088E-01
      6.286  0.2308E-02  0.2306E-02  0.8106E-01  0.8106E-01
      6.360  0.2828E-02  0.2823E-02  0.8126E-01  0.8126E-01
      6.434  0.3123E-02  0.3121E-02  0.8150E-01  0.8150E-01
      6.508  0.2460E-02  0.2462E-02  0.8168E-01  0.8168E-01
      6.582  0.1299E-02  0.1303E-02  0.8178E-01  0.8177E-01
      6.656  0.9789E-03  0.9821E-03  0.8185E-01  0.8185E-01
      6.731  0.2096E-02  0.2098E-02  0.8200E-01  0.8200E-01
      6.805  0.3640E-02  0.3642E-02  0.8227E-01  0.8227E-01
      6.879  0.4045E-02  0.4045E-02  0.8257E-01  0.8257E-01
      6.953  0.3143E-02  0.3133E-02  0.8281E-01  0.8281E-01
      7.027  0.2472E-02  0.2445E-02  0.8299E-01  0.8299E-01
      7.101  0.3144E-02  0.3109E-02  0.8322E-01  0.8322E-01
      7.175  0.4186E-02  0.4172E-02  0.8353E-01  0.8353E-01
      7.249  0.3938E-02  0.3958E-02  0.8382E-01  0.8382E-01
      7.324  0.2416E-02  0.2451E-02  0.8400E-01  0.8400E-01
      7.398  0.1097E-02  0.1120E-02  0.8408E-01  0.8408E-01
      7.472  0.8710E-03  0.8743E-03  0.8415E-01  0.8415E-01
      7.546  0.1395E-02  0.1388E-02  0.8425E-01  0.8425E-01
      7.620  0.2127E-02  0.2121E-02  0.8441E-01  0.8441E-01
      7.694  0.2921E-02  0.2920E-02  0.8463E-01  0.8463E-01
      7.768  0.3634E-02  0.3639E-02  0.8490E-01  0.8490E-01
      7.842  0.4081E-02  0.4087E-02  0.8520E-01  0.8520E-01
      7.917  0.4531E-02  0.4536E-02  0.8553E-01  0.8553E-01
      7.991  0.5480E-02  0.5483E-02  0.8594E-01  0.8594E-01
      8.065  0.6589E-02  0.6591E-02  0.8643E-01  0.8643E-01
      8.139  0.6659E-02  0.6657E-02  0.8692E-01  0.8692E-01
      8.213  0.5228E-02  0.5216E-02  0.8731E-01  0.8731E-01
      8.287  0.3428E-02  0.3405E-02  0.8756E-01  0.8756E-01
      8.361  0.2499E-02  0.2479E-02  0.8775E-01  0.8775E-01
      8.435  0.2272E-02  0.2272E-02  0.8792E-01  0.8791E-01
      8.509  0.1854E-02  0.1873E-02  0.8805E-01  0.8805E-01
      8.584  0.1021E-02  0.1043E-02  0.8813E-01  0.8813E-01
      8.658  0.3880E-03  0.3950E-03  0.8816E-01  0.8816E-01
      8.732  0.7584E-03  0.7460E-03  0.8822E-01  0.8821E-01
      8.806  0.2383E-02  0.2353E-02  0.8839E-01  0.8839E-01
      8.880  0.4316E-02  0.4261E-02  0.8871E-01  0.8870E-01
      8.954  0.4929E-02  0.4832E-02  0.8908E-01  0.8906E-01
      9.028  0.3644E-02  0.3570E-02  0.8935E-01  0.8933E-01
      9.102  0.1590E-02  0.1851E-02  0.8947E-01  0.8946E-01
      9.177  0.1468E-03  0.1248E-02  0.8948E-01  0.8956E-01
      9.251 -0.3513E-03  0.1739E-02  0.8945E-01  0.8969E-01
      9.325 -0.2281E-03  0.2103E-02  0.8943E-01  0.8984E-01
      9.399  0.3585E-03  0.1615E-02  0.8946E-01  0.8996E-01
      9.473  0.1330E-02  0.7008E-03  0.8956E-01  0.9001E-01
      9.547  0.2169E-02  0.6636E-04  0.8972E-01  0.9002E-01
      9.621  0.2189E-02 -0.1195E-03  0.8988E-01  0.9001E-01
      9.695  0.1384E-02 -0.8689E-04  0.8998E-01  0.9000E-01
      9.770  0.4604E-03 -0.3297E-04  0.9002E-01  0.9000E-01
      9.844 -0.3143E-04 -0.8250E-05  0.9002E-01  0.9000E-01
      9.918 -0.1199E-03 -0.1454E-05  0.9001E-01  0.9000E-01
      9.992 -0.6728E-04 -0.1858E-06  0.9000E-01  0.9000E-01
     10.066 -0.2211E-04 -0.1748E-07  0.9000E-01  0.9000E-01
     10.140 -0.4926E-05 -0.1220E-08  0.9000E-01  0.9000E-01
     10.214 -0.7822E-06 -0.6366E-10  0.9000E-01  0.9000E-01
     10.288 -0.9056E-07 -0.2490E-11  0.9000E-01  0.9000E-01
     10.363 -0.7742E-08 -0.7320E-13  0.9000E-01  0.9000E-01
     10.437 -0.4925E-09 -0.1623E-14  0.9000E-01  0.9000E-01
     10.511 -0.2343E-10 -0.2663E-16  0.9000E-01  0.9000E-01
     10.585 -0.8367E-12  0.0000E+00  0.9000E-01  0.9000E-01
     10.659 -0.2248E-13  0.0000E+00  0.9000E-01  0.9000E-01
     10.733 -0.4560E-15  0.0000E+00  0.9000E-01  0.9000E-01
     10.807 -0.6657E-17  0.0000E+00  0.9000E-01  0.9000E-01
     10.881  0.0000E+00  0.0000E+00  0.9000E-01  0.9000E-01
     10.955  0.0000E+00  0.0000E+00  0.9000E-01  0.9000E-01
     11.030  0.0000E+00  0.0000E+00  0.9000E-01  0.9000E-01
     11.104  0.0000E+00  0.0000E+00  0.9000E-01  0.9000E-01
     11.178  0.0000E+00  0.0000E+00  0.9000E-01  0.9000E-01
     11.252  0.0000E+00  0.0000E+00  0.9000E-01  0.9000E-01
     11.326  0.0000E+00  0.0000E+00  0.9000E-01  0.9000E-01
     11.400  0.0000E+00  0.0000E+00  0.9000E-01  0.9000E-01
     11.474  0.0000E+00  0.0000E+00  0.9000E-01  0.9000E-01
     11.548  0.0000E+00  0.0000E+00  0.9000E-01  0.9000E-01
