 vasp.6.3.2 27Jun22 (build Aug 17 2022 15:43:34) complex                        
  
 executed on           tv2STDVTST date 2025.01.21  11:27:11
 running   20 mpi-ranks, with    1 threads/rank
 distrk:  each k-point on   20 cores,    1 groups
 distr:  one band on NCORE=   5 cores,    4 groups


--------------------------------------------------------------------------------------------------------


 -----------------------------------------------------------------------------
|                                                                             |
|           W    W    AA    RRRRR   N    N  II  N    N   GGGG   !!!           |
|           W    W   A  A   R    R  NN   N  II  NN   N  G    G  !!!           |
|           W    W  A    A  R    R  N N  N  II  N N  N  G       !!!           |
|           W WW W  AAAAAA  RRRRR   N  N N  II  N  N N  G  GGG   !            |
|           WW  WW  A    A  R   R   N   NN  II  N   NN  G    G                |
|           W    W  A    A  R    R  N    N  II  N    N   GGGG   !!!           |
|                                                                             |
|     Found issues when parsing the INCAR file                                |
|     In line 61: Tagname --- R W I G S contains invalid characters.          |
|     Please check if the interpretation in the OUTCAR file is correct.       |
|                                                                             |
 -----------------------------------------------------------------------------

 INCAR:
    = \=\=\=\=\=\=\=\=\=\=\=\=\=\=\=\=\=\=\=\=\=\=\=\=\=\=\=\=\=\=\=\=\=\=\=\=\=\=\=\=\=\=\=\=\=\=\=\=\=\=\=\=\=\=\=\=\=\=\=\=\=\=\=\=\=\=\=\=\=\=\=\=
    = \=\=\=\=\=\=\=\=\=\=\=\=\=\=\=\=\=\=\=\=\=\=\=\=\=\=\=\=\=\=\=\=\=\=\=\=\=\=\=\=\=\=\=\=\=\=\=\=\=\=\=\=\=\=\=\=\=\=\=\=\=\=\=\=\=\=\=\=\=\=\=\=
   ISTART = 0
   ICHARG = 2
   IPIPOL = 3
   IVDW = 11
    = \=\=\=\=\=\=\=\=\=\=\=\=\=\=\=\=\=\=\=\=\=\=\=\=\=\=\=\=\=\=\=\=\=\=\=\=\=\=\=\=\=\=\=\=\=\=\=\=\=\=\=\=\=\=\=\=\=\=\=\=\=\=\=\=\=\=\=\=\=\=\=\=
    = \=\=\=\=\=\=\=\=\=\=\=\=\=\=\=\=\=\=\=\=\=\=\=\=\=\=\=\=\=\=\=\=\=\=\=\=\=\=\=\=\=\=\=\=\=\=\=\=\=\=\=\=\=\=\=\=\=\=\=\=\=\=\=\=\=\=\=\=\=\=\=\=
   ISPIN = 2
    = \=\=\=\=\=\=\=\=\=\=\=\=\=\=\=\=\=\=\=\=\=\=\=\=\=\=\=\=\=\=\=\=\=\=\=\=\=\=\=\=\=\=\=\=\=\=\=\=\=\=\=\=\=\=\=\=\=\=\=\=\=\=\=\=\=\=\=\=\=\=\=\=
    = \=\=\=\=\=\=\=\=\=\=\=\=\=\=\=\=\=\=\=\=\=\=\=\=\=\=\=\=\=\=\=\=\=\=\=\=\=\=\=\=\=\=\=\=\=\=\=\=\=\=\=\=\=\=\=\=\=\=\=\=\=\=\=\=\=\=\=\=\=\=\=\=
   ENCUT = 400
   PREC = Normal
   EDIFF = 2E-04
   GGA = PE
   ISMEAR = 1
   SIGMA = 0.2
   LREAL = .FALSE.
    = \=\=\=\=\=\=\=\=\=\=\=\=\=\=\=\=\=\=\=\=\=\=\=\=\=\=\=\=\=\=\=\=\=\=\=\=\=\=\=\=\=\=\=\=\=\=\=\=\=\=\=\=\=\=\=\=\=\=\=\=\=\=\=\=\=\=\=\=\=\=\=\=
    = \=\=\=\=\=\=\=\=\=\=\=\=\=\=\=\=\=\=\=\=\=\=\=\=\=\=\=\=\=\=\=\=\=\=\=\=\=\=\=\=\=\=\=\=\=\=\=\=\=\=\=\=\=\=\=\=\=\=\=\=\=\=\=\=\=\=\=\=\=\=\=\=
   ISYM = 1
   NSW = 800
   IBRION = 2
   POTIM = 0.5
   ISIF = 2
   EDIFFG = -.03
    = \=\=\=\=\=\=\=\=\=\=\=\=\=\=\=\=\=\=\=\=\=\=\=\=\=\=\=\=\=\=\=\=\=\=\=\=\=\=\=\=\=\=\=\=\=\=\=\=\=\=\=\=\=\=\=\=\=\=\=\=\=\=\=\=\=\=\=\=\=\=\=\=
    = \=\=\=\=\=\=\=\=\=\=\=\=\=\=\=\=\=\=\=\=\=\=\=\=\=\=\=\=\=\=\=\=\=\=\=\=\=\=\=\=\=\=\=\=\=\=\=\=\=\=\=\=\=\=\=\=\=\=\=\=\=\=\=\=\=\=\=\=\=\=\=\=
   NPAR = 4
   LWAVE = .FALSE.
   LCHARG = .FALSE.

 POTCAR:    PAW_PBE Cu 22Jun2005                  
 -----------------------------------------------------------------------------
|                                                                             |
|           W    W    AA    RRRRR   N    N  II  N    N   GGGG   !!!           |
|           W    W   A  A   R    R  NN   N  II  NN   N  G    G  !!!           |
|           W    W  A    A  R    R  N N  N  II  N N  N  G       !!!           |
|           W WW W  AAAAAA  RRRRR   N  N N  II  N  N N  G  GGG   !            |
|           WW  WW  A    A  R   R   N   NN  II  N   NN  G    G                |
|           W    W  A    A  R    R  N    N  II  N    N   GGGG   !!!           |
|                                                                             |
|     You use a magnetic or noncollinear calculation, but did not specify     |
|     the initial magnetic moment with the MAGMOM tag. Note that a            |
|     default of 1 will be used for all atoms. This ferromagnetic setup       |
|     may break the symmetry of the crystal, in particular it may rule        |
|     out finding an antiferromagnetic solution. Thence, we recommend         |
|     setting the initial magnetic moment manually or verifying carefully     |
|     that this magnetic setup is desired.                                    |
|                                                                             |
 -----------------------------------------------------------------------------

 POTCAR:    PAW_PBE Cu 22Jun2005                  
   SHA256 =  0e71e558f37a4e8407882b4609ceaae59938afaad9ced71dfe8490308a0ab630 Cu/POTCAR             
   COPYR  = (c) Copyright 22Jun2005 Georg Kresse                                                    
   COPYR  = This file is part of the software VASP. Any use, copying, and all other rights are regul
   COPYR  = If you do not have a valid VASP license, you may not use, copy or distribute this file. 
   VRHFIN =Cu: d10 p1                                                                               
   LEXCH  = PE                                                                                      
   EATOM  =  1390.9808 eV,  102.2342 Ry                                                             
                                                                                                    
   TITEL  = PAW_PBE Cu 22Jun2005                                                                    
   LULTRA =        F    use ultrasoft PP ?                                                          
   IUNSCR =        1    unscreen: 0-lin 1-nonlin 2-no                                               
   RPACOR =    2.000    partial core radius                                                         
   POMASS =   63.546; ZVAL   =   11.000    mass and valenz                                          
   RCORE  =    2.300    outmost cutoff radius                                                       
   RWIGS  =    2.200; RWIGS  =    1.164    wigner-seitz radius (au A)                               
   ENMAX  =  295.446; ENMIN  =  221.585 eV                                                          
   ICORE  =        3    local potential                                                             
   LCOR   =        T    correct aug charges                                                         
   LPAW   =        T    paw PP                                                                      
   EAUG   =  586.980                                                                                
   DEXC   =    0.000                                                                                
   RMAX   =    2.344    core radius for proj-oper                                                   
   RAUG   =    1.300    factor for augmentation sphere                                              
   RDEP   =    2.302    radius for radial grids                                                     
   RDEPT  =    1.771    core radius for aug-charge                                                  
                                                                                                    
   Atomic configuration                                                                             
    9 entries                                                                                       
     n  l   j            E        occ.                                                              
     1  0  0.50     -8850.2468   2.0000                                                             
     2  0  0.50     -1062.3498   2.0000                                                             
     2  1  1.50      -916.8226   6.0000                                                             
     3  0  0.50      -114.6929   2.0000                                                             
     3  1  1.50       -72.1325   6.0000                                                             
     3  2  2.50        -5.0394  10.0000                                                             
     4  0  0.50        -4.6097   1.0000                                                             
     4  1  0.50        -4.0817   0.0000                                                             
     4  3  2.50        -1.3606   0.0000                                                             
   Description                                                                                      
     l       E           TYP  RCUT    TYP  RCUT                                                     
     2     -5.0393973     23  2.200                                                                 
     2     10.8846608     23  2.200                                                                 
     0     -4.6097109     23  2.200                                                                 
     0      8.2520465     23  2.200                                                                 
     1     -2.7211652     23  2.200                                                                 
     1     21.7055443     23  2.200                                                                 
     3      2.7211652     23  2.300                                                                 
  local pseudopotential read in
  partial core-charges read in
  partial kinetic energy density read in
  atomic valenz-charges read in
  non local Contribution for L=           2  read in
    real space projection operators read in
  non local Contribution for L=           2  read in
    real space projection operators read in
  non local Contribution for L=           0  read in
    real space projection operators read in
  non local Contribution for L=           0  read in
    real space projection operators read in
  non local Contribution for L=           1  read in
    real space projection operators read in
  non local Contribution for L=           1  read in
    real space projection operators read in
    PAW grid and wavefunctions read in
 
   number of l-projection  operators is LMAX  =           6
   number of lm-projection operators is LMMAX =          18
 
  PAW_PBE Cu 22Jun2005                  :
 energy of atom  1       EATOM=-1390.9808
 kinetic energy error for atom=    0.0232 (will be added to EATOM!!)
 
 
 POSCAR: FCC Cu
  positions in cartesian coordinates
  velocities in cartesian coordinates
  No initial velocities read in
 exchange correlation table for  LEXCH =        8
   RHO(1)=    0.500       N(1)  =     2000
   RHO(2)=  100.500       N(2)  =     4000

 VTST: version 4.2, (08/11/21)

 CHAIN: initializing optimizer
 
 OPT: Using VASP Conjugate-Gradient optimizer
 CHAIN: Read ICHAIN            0
 
 POSCAR: FCC Cu
  positions in cartesian coordinates
  velocities in cartesian coordinates
  No initial velocities read in
 


--------------------------------------------------------------------------------------------------------


 ion  position               nearest neighbor table
   1  0.000  0.000  0.000-   3 2.57   4 2.57   3 2.57   4 2.57   2 2.57   2 2.57   2 2.57   2 2.57

   2  0.500  0.500  0.000-   3 2.57   4 2.57   3 2.57   4 2.57   1 2.57   1 2.57   1 2.57   1 2.57

   3  0.000  0.500  0.082-   5 2.57   6 2.57   5 2.57   6 2.57   2 2.57   1 2.57   2 2.57   1 2.57
                             4 2.57   4 2.57   4 2.57   4 2.57
   4  0.500  0.000  0.082-   5 2.57   6 2.57   5 2.57   6 2.57   2 2.57   1 2.57   2 2.57   1 2.57
                             3 2.57   3 2.57   3 2.57   3 2.57
   5  0.000  0.000  0.163-   3 2.57   4 2.57   3 2.57   4 2.57   7 2.57   8 2.57   7 2.57   8 2.57
                             6 2.57   6 2.57   6 2.57   6 2.57
   6  0.500  0.500  0.163-   3 2.57   4 2.57   3 2.57   4 2.57   7 2.57   8 2.57   7 2.57   8 2.57
                             5 2.57   5 2.57   5 2.57   5 2.57
   7  0.000  0.500  0.245-   9 2.57  10 2.57   9 2.57  10 2.57   6 2.57   5 2.57   6 2.57   5 2.57
                             8 2.57   8 2.57   8 2.57   8 2.57
   8  0.500  0.000  0.245-   9 2.57  10 2.57   9 2.57  10 2.57   6 2.57   5 2.57   6 2.57   5 2.57
                             7 2.57   7 2.57   7 2.57   7 2.57
   9  0.000  0.000  0.326-   7 2.57   8 2.57   7 2.57   8 2.57  10 2.57  10 2.57  10 2.57  10 2.57

  10  0.500  0.500  0.326-   7 2.57   8 2.57   7 2.57   8 2.57   9 2.57   9 2.57   9 2.57   9 2.57

 
  LATTYP: Found a simple tetragonal cell.
 ALAT       =     3.6300001144
 C/A-ratio  =     6.1322312117
  
  Lattice vectors:
  
 A1 = (   3.6300001144,   0.0000000000,   0.0000000000)
 A2 = (   0.0000000000,   3.6300001144,   0.0000000000)
 A3 = (   0.0000000000,   0.0000000000,  22.2600000000)


Analysis of symmetry for initial positions (statically):
=====================================================================
 Subroutine PRICEL returns following result:
 
  LATTYP: Found a simple tetragonal cell.
 ALAT       =     2.5667976966
 C/A-ratio  =     8.6722845472
  
  Lattice vectors:
  
 A1 = (   1.8150000570,  -1.8150000574,   0.0000000000)
 A2 = (   1.8150000570,   1.8150000570,   0.0000000000)
 A3 = (   0.0000000000,   0.0000000000,  22.2600000000)
 
   2 primitive cells build up your supercell.
 

 Routine SETGRP: Setting up the symmetry group for a 
 simple tetragonal supercell.


 Subroutine GETGRP returns: Found 16 space group operations
 (whereof  8 operations were pure point group operations)
 out of a pool of 16 trial point group operations.


The static configuration has the point symmetry C_4v.
 The point group associated with its full space group is D_4h.


Analysis of symmetry for dynamics (positions and initial velocities):
=====================================================================
 Subroutine PRICEL returns following result:
 
  LATTYP: Found a simple tetragonal cell.
 ALAT       =     2.5667976966
 C/A-ratio  =     8.6722845472
  
  Lattice vectors:
  
 A1 = (   1.8150000570,  -1.8150000574,   0.0000000000)
 A2 = (   1.8150000570,   1.8150000570,   0.0000000000)
 A3 = (   0.0000000000,   0.0000000000,  22.2600000000)
 
   2 primitive cells build up your supercell.
 

 Routine SETGRP: Setting up the symmetry group for a 
 simple tetragonal supercell.


 Subroutine GETGRP returns: Found 16 space group operations
 (whereof  8 operations were pure point group operations)
 out of a pool of 16 trial point group operations.


The dynamic configuration has the point symmetry C_4v.
 The point group associated with its full space group is D_4h.


Analysis of constrained symmetry for selective dynamics:
=====================================================================
 Subroutine PRICEL returns following result:
 
  LATTYP: Found a simple tetragonal cell.
 ALAT       =     2.5667976966
 C/A-ratio  =     8.6722845472
  
  Lattice vectors:
  
 A1 = (   1.8150000570,  -1.8150000574,   0.0000000000)
 A2 = (   1.8150000570,   1.8150000570,   0.0000000000)
 A3 = (   0.0000000000,   0.0000000000,  22.2600000000)
 
   2 primitive cells build up your supercell.
 

 Routine SETGRP: Setting up the symmetry group for a 
 simple tetragonal supercell.


 Subroutine GETGRP returns: Found  8 space group operations
 (whereof  8 operations were pure point group operations)
 out of a pool of 16 trial point group operations.


The constrained configuration has the point symmetry C_4v.


Analysis of structural, dynamic, and magnetic symmetry:
=====================================================================
 Subroutine PRICEL returns following result:
 
  LATTYP: Found a simple tetragonal cell.
 ALAT       =     2.5667976966
 C/A-ratio  =     8.6722845472
  
  Lattice vectors:
  
 A1 = (   1.8150000570,  -1.8150000574,   0.0000000000)
 A2 = (   1.8150000570,   1.8150000570,   0.0000000000)
 A3 = (   0.0000000000,   0.0000000000,  22.2600000000)
 
   2 primitive cells build up your supercell.
 

 Routine SETGRP: Setting up the symmetry group for a 
 simple tetragonal supercell.


 Subroutine GETGRP returns: Found  8 space group operations
 (whereof  8 operations were pure point group operations)
 out of a pool of 16 trial point group operations.


The overall configuration has the point symmetry C_4v.


 Subroutine INISYM returns: Found  8 space group operations
 (whereof  8 operations are pure point group operations),
 and found     2 'primitive' translations


----------------------------------------------------------------------------------------

                                     Primitive cell                                     

  volume of cell :     146.6589

  direct lattice vectors                    reciprocal lattice vectors
     1.815000057 -1.815000057  0.000000000     0.275482085 -0.275482085  0.000000000
     1.815000057  1.815000057  0.000000000     0.275482085  0.275482085  0.000000000
     0.000000000  0.000000000 22.260000000     0.000000000  0.000000000  0.044923630

  length of vectors
     2.566797697  2.566797696 22.260000000     0.389590501  0.389590501  0.044923630

  position of ions in fractional coordinates (direct lattice)
     0.000000000  0.000000000  0.000000000
     0.500000000  0.500000000  0.081536389
     0.000000000  0.000000000  0.163072779
     0.500000000  0.500000000  0.244609168
     0.000000000  0.000000000  0.326145557

  ion indices of the primitive-cell ions
   primitive index   ion index
                 1           1
                 2           3
                 3           5
                 4           7
                 5           9

----------------------------------------------------------------------------------------

 
 
 KPOINTS: Auto-mesh                               

Automatic generation of k-mesh.
 Grid dimensions read from file:
 generate k-points for:    3    3    1

 Generating k-lattice:

  Cartesian coordinates                     Fractional coordinates (reciprocal lattice)
     0.091827362  0.000000000  0.000000000     0.333333333  0.000000000  0.000000000
     0.000000000  0.091827362  0.000000000     0.000000000  0.333333333  0.000000000
     0.000000000  0.000000000  0.044923630     0.000000000  0.000000000  1.000000000

  Length of vectors
     0.091827362  0.091827362  0.044923630

  Shift w.r.t. Gamma in fractional coordinates (k-lattice)
     0.000000000  0.000000000  0.000000000

 
 Subroutine IBZKPT returns following result:
 ===========================================
 
 Found      3 irreducible k-points:
 
 Following reciprocal coordinates:
            Coordinates               Weight
  0.000000  0.000000  0.000000      1.000000
  0.333333  0.000000  0.000000      4.000000
  0.333333  0.333333  0.000000      4.000000
 
 Following cartesian coordinates:
            Coordinates               Weight
  0.000000  0.000000  0.000000      1.000000
  0.091827  0.000000  0.000000      4.000000
  0.091827  0.091827  0.000000      4.000000
 


--------------------------------------------------------------------------------------------------------




 Dimension of arrays:
   k-points           NKPTS =      3   k-points in BZ     NKDIM =      3   number of bands    NBANDS=     72
   number of dos      NEDOS =    301   number of ions     NIONS =     10
   non local maximal  LDIM  =      6   non local SUM 2l+1 LMDIM =     18
   total plane-waves  NPLWV =  36288
   max r-space proj   IRMAX =      1   max aug-charges    IRDMAX=   3783
   dimension x,y,z NGX =    18 NGY =   18 NGZ =  112
   dimension x,y,z NGXF=    36 NGYF=   36 NGZF=  224
   support grid    NGXF=    36 NGYF=   36 NGZF=  224
   ions per type =              10
   NGX,Y,Z   is equivalent  to a cutoff of   8.24,  8.24,  8.36 a.u.
   NGXF,Y,Z  is equivalent  to a cutoff of  16.49, 16.49, 16.73 a.u.

 SYSTEM =  unknown system                          
 POSCAR =  FCC Cu                                  

 Startparameter for this run:
   NWRITE =      2    write-flag & timer
   PREC   = normal    normal or accurate (medium, high low for compatibility)
   ISTART =      0    job   : 0-new  1-cont  2-samecut
   ICHARG =      2    charge: 1-file 2-atom 10-const
   ISPIN  =      2    spin polarized calculation?
   LNONCOLLINEAR =      F non collinear calculations
   LSORBIT =      F    spin-orbit coupling
   INIWAV =      1    electr: 0-lowe 1-rand  2-diag
   LASPH  =      F    aspherical Exc in radial PAW
 Electronic Relaxation 1
   ENCUT  =  400.0 eV  29.40 Ry    5.42 a.u.   5.92  5.92 36.30*2*pi/ulx,y,z
   ENINI  =  400.0     initial cutoff
   ENAUG  =  587.0 eV  augmentation charge cutoff
   NELM   =     60;   NELMIN=  2; NELMDL= -5     # of ELM steps 
   EDIFF  = 0.2E-03   stopping-criterion for ELM
   LREAL  =      F    real-space projection
   NLSPLINE    = F    spline interpolate recip. space projectors
   LCOMPAT=      F    compatible to vasp.4.4
   GGA_COMPAT  = T    GGA compatible to vasp.4.4-vasp.4.6
   LMAXPAW     = -100 max onsite density
   LMAXMIX     =    2 max onsite mixed and CHGCAR
   VOSKOWN=      0    Vosko Wilk Nusair interpolation
   ROPT   =    0.00000
 Ionic relaxation
   EDIFFG = -.3E-01   stopping-criterion for IOM
   NSW    =    800    number of steps for IOM
   NBLOCK =      1;   KBLOCK =    800    inner block; outer block 
   IBRION =      2    ionic relax: 0-MD 1-quasi-New 2-CG
   NFREE  =      1    steps in history (QN), initial steepest desc. (CG)
   ISIF   =      2    stress and relaxation
   IWAVPR =     11    prediction:  0-non 1-charg 2-wave 3-comb
   ISYM   =      1    0-nonsym 1-usesym 2-fastsym
   LCORR  =      T    Harris-Foulkes like correction to forces

   POTIM  = 0.5000    time-step for ionic-motion
   TEIN   =    0.0    initial temperature
   TEBEG  =    0.0;   TEEND  =   0.0 temperature during run
   SMASS  =  -3.00    Nose mass-parameter (am)
   estimated Nose-frequenzy (Omega)   =  0.10E-29 period in steps = 0.13E+47 mass=  -0.301E-27a.u.
   SCALEE = 1.0000    scale energy and forces
   NPACO  =    256;   APACO  = 10.0  distance and # of slots for P.C.
   PSTRESS=    0.0 pullay stress

  Mass of Ions in am
   POMASS =  63.55
  Ionic Valenz
   ZVAL   =  11.00
  Atomic Wigner-Seitz radii
   RWIGS  =  -1.00
  virtual crystal weights 
   VCA    =   1.00
   NELECT =     110.0000    total number of electrons
   NUPDOWN=      -1.0000    fix difference up-down

 DOS related values:
   EMIN   =  10.00;   EMAX   =-10.00  energy-range for DOS
   EFERMI =   0.00
   ISMEAR =     1;   SIGMA  =   0.20  broadening in eV -4-tet -1-fermi 0-gaus

 Electronic relaxation 2 (details)
   IALGO  =     38    algorithm
   LDIAG  =      T    sub-space diagonalisation (order eigenvalues)
   LSUBROT=      F    optimize rotation matrix (better conditioning)
   TURBO    =      0    0=normal 1=particle mesh
   IRESTART =      0    0=no restart 2=restart with 2 vectors
   NREBOOT  =      0    no. of reboots
   NMIN     =      0    reboot dimension
   EREF     =   0.00    reference energy to select bands
   IMIX   =      4    mixing-type and parameters
     AMIX     =   0.40;   BMIX     =  1.00
     AMIX_MAG =   1.60;   BMIX_MAG =  1.00
     AMIN     =   0.10
     WC   =   100.;   INIMIX=   1;  MIXPRE=   1;  MAXMIX= -45

 Intra band minimization:
   WEIMIN = 0.0010     energy-eigenvalue tresh-hold
   EBREAK =  0.69E-06  absolut break condition
   DEPER  =   0.30     relativ break condition  

   TIME   =   0.40     timestep for ELM

  volume/ion in A,a.u.               =      29.33       197.94
  Fermi-wavevector in a.u.,A,eV,Ry     =   1.180573  2.230960 18.963161  1.393753
  Thomas-Fermi vector in A             =   2.316863
 
 Write flags
   LWAVE        =      F    write WAVECAR
   LDOWNSAMPLE  =      F    k-point downsampling of WAVECAR
   LCHARG       =      F    write CHGCAR
   LVTOT        =      F    write LOCPOT, total local potential
   LVHAR        =      F    write LOCPOT, Hartree potential only
   LELF         =      F    write electronic localiz. function (ELF)
   LORBIT       =      0    0 simple, 1 ext, 2 COOP (PROOUT), +10 PAW based schemes


 Dipole corrections
   LMONO  =      F    monopole corrections only (constant potential shift)
   LDIPOL =      F    correct potential (dipole corrections)
   IDIPOL =      0    1-x, 2-y, 3-z, 4-all directions 
   EPSILON=  1.0000000 bulk dielectric constant

 Exchange correlation treatment:
   GGA     =    PE    GGA type
   LEXCH   =     8    internal setting for exchange type
   LIBXC   =     F    Libxc                    
   VOSKOWN =     0    Vosko Wilk Nusair interpolation
   LHFCALC =     F    Hartree Fock is set to
   LHFONE  =     F    Hartree Fock one center treatment
   AEXX    =    0.0000 exact exchange contribution

 Linear response parameters
   LEPSILON=     F    determine dielectric tensor
   LRPA    =     F    only Hartree local field effects (RPA)
   LNABLA  =     F    use nabla operator in PAW spheres
   LVEL    =     F    velocity operator in full k-point grid
   CSHIFT  =0.1000    complex shift for real part using Kramers Kronig
   OMEGAMAX=  -1.0    maximum frequency
   DEG_THRESHOLD= 0.2000000E-02 threshold for treating states as degnerate
   RTIME   =   -0.100 relaxation time in fs
  (WPLASMAI=    0.000 imaginary part of plasma frequency in eV, 0.658/RTIME)
   DFIELD  = 0.0000000 0.0000000 0.0000000 field for delta impulse in time
 
  Optional k-point grid parameters
   LKPOINTS_OPT  =     F    use optional k-point grid
   KPOINTS_OPT_MODE=     1    mode for optional k-point grid
 
 Orbital magnetization related:
   ORBITALMAG=     F  switch on orbital magnetization
   LCHIMAG   =     F  perturbation theory with respect to B field
   DQ        =  0.001000  dq finite difference perturbation B field
   LLRAUG    =     F  two centre corrections for induced B field



--------------------------------------------------------------------------------------------------------


 conjugate gradient relaxation of ions
   using selective dynamics as specified on POSCAR
   WARNING: If single coordinates had been selected the selection of coordinates
            is made according to the corresponding   d i r e c t   coordinates!
            Don't support selection of single cartesian coordinates -- sorry ...
  !
 charge density and potential will be updated during run
 spin polarized calculation
 Variant of blocked Davidson
 Davidson routine will perform the subspace rotation
 perform sub-space diagonalisation
    after iterative eigenvector-optimisation
 modified Broyden-mixing scheme, WC =      100.0
 initial mixing is a Kerker type mixing with AMIX =  0.4000 and BMIX =      1.0000
 Hartree-type preconditioning will be used
 using additional bands           17
 reciprocal scheme for non local part
 use partial core corrections
 calculate Harris-corrections to forces 
   (improved forces if not selfconsistent)
 use gradient corrections 
 use of overlap-Matrix (Vanderbilt PP)
 Methfessel and Paxton  Order N= 1 SIGMA  =   0.20


--------------------------------------------------------------------------------------------------------


  energy-cutoff  :      400.00
  volume of cell :      293.32
      direct lattice vectors                 reciprocal lattice vectors
     3.630000114  0.000000000  0.000000000     0.275482085  0.000000000  0.000000000
     0.000000000  3.630000114  0.000000000     0.000000000  0.275482085  0.000000000
     0.000000000  0.000000000 22.260000000     0.000000000  0.000000000  0.044923630

  length of vectors
     3.630000114  3.630000114 22.260000000     0.275482085  0.275482085  0.044923630


 
 k-points in units of 2pi/SCALE and weight: Auto-mesh                               
   0.00000000  0.00000000  0.00000000       0.111
   0.09182736  0.00000000  0.00000000       0.444
   0.09182736  0.09182736  0.00000000       0.444
 
 k-points in reciprocal lattice and weights: Auto-mesh                               
   0.00000000  0.00000000  0.00000000       0.111
   0.33333333  0.00000000  0.00000000       0.444
   0.33333333  0.33333333  0.00000000       0.444
 
 position of ions in fractional coordinates (direct lattice) 
   0.00000000  0.00000000  0.00000000
   0.50000000  0.50000000  0.00000000
   0.00000000  0.50000000  0.08153639
   0.50000000  0.00000000  0.08153639
   0.00000000  0.00000000  0.16307278
   0.50000000  0.50000000  0.16307278
   0.00000000  0.50000000  0.24460917
   0.50000000  0.00000000  0.24460917
   0.00000000  0.00000000  0.32614556
   0.50000000  0.50000000  0.32614556
 
 position of ions in cartesian coordinates  (Angst):
   0.00000000  0.00000000  0.00000000
   1.81500006  1.81500006  0.00000000
   0.00000000  1.81500006  1.81500003
   1.81500006  0.00000000  1.81500003
   0.00000000  0.00000000  3.63000005
   1.81500006  1.81500006  3.63000005
   0.00000000  1.81500006  5.44500008
   1.81500006  0.00000000  5.44500008
   0.00000000  0.00000000  7.26000010
   1.81500006  1.81500006  7.26000010
 


--------------------------------------------------------------------------------------------------------


 k-point   1 :   0.0000 0.0000 0.0000  plane waves:    5317
 k-point   2 :   0.3333 0.0000 0.0000  plane waves:    5304
 k-point   3 :   0.3333 0.3333 0.0000  plane waves:    5350

 maximum and minimum number of plane-waves per node :      1075     1045

 maximum number of plane-waves:      5350
 maximum index in each direction: 
   IXMAX=    5   IYMAX=    5   IZMAX=   36
   IXMIN=   -6   IYMIN=   -6   IZMIN=  -36


 parallel 3D FFT for wavefunctions:
    minimum data exchange during FFTs selected (reduces bandwidth)
 parallel 3D FFT for charge:
    minimum data exchange during FFTs selected (reduces bandwidth)


 total amount of memory used by VASP MPI-rank0    35203. kBytes
=======================================================================

   base      :      30000. kBytes
   nonl-proj :        634. kBytes
   fftplans  :        777. kBytes
   grid      :       1816. kBytes
   one-center:         62. kBytes
   wavefun   :       1914. kBytes
 
     INWAV:  cpu time      0.0000: real time      0.0004
 Broyden mixing: mesh for mixing (old mesh)
   NGX = 11   NGY = 11   NGZ = 73
  (NGX  = 36   NGY  = 36   NGZ  =224)
  gives a total of   8833 points

 initial charge density was supplied:
 charge density of overlapping atoms calculated
 number of electron     110.0000000 magnetization      10.0000000
 keeping initial charge density in first step


--------------------------------------------------------------------------------------------------------


 Maximum index for augmentation-charges          283 (set IRDMAX)


--------------------------------------------------------------------------------------------------------


 First call to EWALD:  gamma=   0.267
 Maximum number of real-space cells 5x 5x 1
 Maximum number of reciprocal cells 2x 2x 8

    FEWALD:  cpu time      0.0018: real time      0.0018


--------------------------------------- Iteration      1(   1)  ---------------------------------------


    POTLOK:  cpu time      0.0219: real time      0.0243
    SETDIJ:  cpu time      0.0066: real time      0.0067
     EDDAV:  cpu time      0.3562: real time      0.3590
       DOS:  cpu time      0.0015: real time      0.0015
    --------------------------------------------
      LOOP:  cpu time      0.3862: real time      0.3915

 eigenvalue-minimisations  :   864
 total energy-change (2. order) : 0.9450122E+03  (-0.4049962E+04)
 number of electron     110.0000000 magnetization      10.0000000
 augmentation part      110.0000000 magnetization      10.0000000

 Free energy of the ion-electron system (eV)
  ---------------------------------------------------
  alpha Z        PSCENC =       249.32956877
  Ewald energy   TEWEN  =     44610.86902980
  -Hartree energ DENC   =    -58046.75845480
  -exchange      EXHF   =         0.00000000
  -V(xc)+E(xc)   XCENC  =       456.19032719
  PAW double counting   =     12280.97496049   -13339.20931525
  entropy T*S    EENTRO =         0.01131877
  eigenvalues    EBANDS =       824.02835176
  atomic energy  EATOM  =     13909.57640200
  Solvation  Ediel_sol  =         0.00000000
  ---------------------------------------------------
  free energy    TOTEN  =       945.01218872 eV

  energy without entropy =      945.00086995  energy(sigma->0) =      945.00841580


--------------------------------------------------------------------------------------------------------




--------------------------------------- Iteration      1(   2)  ---------------------------------------


     EDDAV:  cpu time      0.3437: real time      0.3473
       DOS:  cpu time      0.0008: real time      0.0008
    --------------------------------------------
      LOOP:  cpu time      0.3445: real time      0.3481

 eigenvalue-minimisations  :   864
 total energy-change (2. order) :-0.8719072E+03  (-0.8360554E+03)
 number of electron     110.0000000 magnetization      10.0000000
 augmentation part      110.0000000 magnetization      10.0000000

 Free energy of the ion-electron system (eV)
  ---------------------------------------------------
  alpha Z        PSCENC =       249.32956877
  Ewald energy   TEWEN  =     44610.86902980
  -Hartree energ DENC   =    -58046.75845480
  -exchange      EXHF   =         0.00000000
  -V(xc)+E(xc)   XCENC  =       456.19032719
  PAW double counting   =     12280.97496049   -13339.20931525
  entropy T*S    EENTRO =        -0.01508145
  eigenvalues    EBANDS =       -47.85247708
  atomic energy  EATOM  =     13909.57640200
  Solvation  Ediel_sol  =         0.00000000
  ---------------------------------------------------
  free energy    TOTEN  =        73.10495967 eV

  energy without entropy =       73.12004112  energy(sigma->0) =       73.10998682


--------------------------------------------------------------------------------------------------------




--------------------------------------- Iteration      1(   3)  ---------------------------------------


     EDDAV:  cpu time      0.3721: real time      0.3749
       DOS:  cpu time      0.0010: real time      0.0010
    --------------------------------------------
      LOOP:  cpu time      0.3731: real time      0.3759

 eigenvalue-minimisations  :   920
 total energy-change (2. order) :-0.1092869E+03  (-0.9929799E+02)
 number of electron     110.0000000 magnetization      10.0000000
 augmentation part      110.0000000 magnetization      10.0000000

 Free energy of the ion-electron system (eV)
  ---------------------------------------------------
  alpha Z        PSCENC =       249.32956877
  Ewald energy   TEWEN  =     44610.86902980
  -Hartree energ DENC   =    -58046.75845480
  -exchange      EXHF   =         0.00000000
  -V(xc)+E(xc)   XCENC  =       456.19032719
  PAW double counting   =     12280.97496049   -13339.20931525
  entropy T*S    EENTRO =        -0.00511506
  eigenvalues    EBANDS =      -157.14934086
  atomic energy  EATOM  =     13909.57640200
  Solvation  Ediel_sol  =         0.00000000
  ---------------------------------------------------
  free energy    TOTEN  =       -36.18193773 eV

  energy without entropy =      -36.17682267  energy(sigma->0) =      -36.18023271


--------------------------------------------------------------------------------------------------------




--------------------------------------- Iteration      1(   4)  ---------------------------------------


     EDDAV:  cpu time      0.3741: real time      0.3777
       DOS:  cpu time      0.0009: real time      0.0009
    --------------------------------------------
      LOOP:  cpu time      0.3750: real time      0.3786

 eigenvalue-minimisations  :   960
 total energy-change (2. order) :-0.4689260E+01  (-0.4650075E+01)
 number of electron     110.0000000 magnetization      10.0000000
 augmentation part      110.0000000 magnetization      10.0000000

 Free energy of the ion-electron system (eV)
  ---------------------------------------------------
  alpha Z        PSCENC =       249.32956877
  Ewald energy   TEWEN  =     44610.86902980
  -Hartree energ DENC   =    -58046.75845480
  -exchange      EXHF   =         0.00000000
  -V(xc)+E(xc)   XCENC  =       456.19032719
  PAW double counting   =     12280.97496049   -13339.20931525
  entropy T*S    EENTRO =        -0.00095153
  eigenvalues    EBANDS =      -161.84276418
  atomic energy  EATOM  =     13909.57640200
  Solvation  Ediel_sol  =         0.00000000
  ---------------------------------------------------
  free energy    TOTEN  =       -40.87119751 eV

  energy without entropy =      -40.87024598  energy(sigma->0) =      -40.87088033


--------------------------------------------------------------------------------------------------------




--------------------------------------- Iteration      1(   5)  ---------------------------------------


     EDDAV:  cpu time      0.4020: real time      0.4051
       DOS:  cpu time      0.0009: real time      0.0009
    CHARGE:  cpu time      0.0905: real time      0.0909
    MIXING:  cpu time      0.0015: real time      0.0015
    --------------------------------------------
      LOOP:  cpu time      0.4949: real time      0.4983

 eigenvalue-minimisations  :  1072
 total energy-change (2. order) :-0.1001883E+00  (-0.1001393E+00)
 number of electron     110.0001552 magnetization       9.1307457
 augmentation part       65.1817101 magnetization       8.5652841

 Broyden mixing:
  rms(total) = 0.27889E+01    rms(broyden)= 0.27885E+01
  rms(prec ) = 0.29038E+01
  weight for this iteration     100.00

 Free energy of the ion-electron system (eV)
  ---------------------------------------------------
  alpha Z        PSCENC =       249.32956877
  Ewald energy   TEWEN  =     44610.86902980
  -Hartree energ DENC   =    -58046.75845480
  -exchange      EXHF   =         0.00000000
  -V(xc)+E(xc)   XCENC  =       456.19032719
  PAW double counting   =     12280.97496049   -13339.20931525
  entropy T*S    EENTRO =        -0.00092393
  eigenvalues    EBANDS =      -161.94298009
  atomic energy  EATOM  =     13909.57640200
  Solvation  Ediel_sol  =         0.00000000
  ---------------------------------------------------
  free energy    TOTEN  =       -40.97138583 eV

  energy without entropy =      -40.97046190  energy(sigma->0) =      -40.97107785


--------------------------------------------------------------------------------------------------------




--------------------------------------- Iteration      1(   6)  ---------------------------------------


    POTLOK:  cpu time      0.0197: real time      0.0200
    SETDIJ:  cpu time      0.0068: real time      0.0068
     EDDAV:  cpu time      0.3637: real time      0.3664
       DOS:  cpu time      0.0008: real time      0.0008
    CHARGE:  cpu time      0.0884: real time      0.0890
    MIXING:  cpu time      0.0011: real time      0.0011
    --------------------------------------------
      LOOP:  cpu time      0.4806: real time      0.4843

 eigenvalue-minimisations  :   936
 total energy-change (2. order) : 0.6587532E+01  (-0.9633128E+01)
 number of electron     110.0001727 magnetization       8.5753622
 augmentation part       73.5379643 magnetization       6.0235285

 Broyden mixing:
  rms(total) = 0.14804E+01    rms(broyden)= 0.14797E+01
  rms(prec ) = 0.15544E+01
  weight for this iteration     100.00

 eigenvalues of (default mixing * dielectric matrix)
  average eigenvalue GAMMA=   0.7848
  0.7848

 Free energy of the ion-electron system (eV)
  ---------------------------------------------------
  alpha Z        PSCENC =       249.32956877
  Ewald energy   TEWEN  =     44610.86902980
  -Hartree energ DENC   =    -57778.28635062
  -exchange      EXHF   =         0.00000000
  -V(xc)+E(xc)   XCENC  =       444.29033379
  PAW double counting   =     12394.73396098   -13399.24732330
  entropy T*S    EENTRO =         0.00082964
  eigenvalues    EBANDS =      -465.65030492
  atomic energy  EATOM  =     13909.57640200
  Solvation  Ediel_sol  =         0.00000000
  ---------------------------------------------------
  free energy    TOTEN  =       -34.38385385 eV

  energy without entropy =      -34.38468350  energy(sigma->0) =      -34.38413040


--------------------------------------------------------------------------------------------------------




--------------------------------------- Iteration      1(   7)  ---------------------------------------


    POTLOK:  cpu time      0.0192: real time      0.0195
    SETDIJ:  cpu time      0.0059: real time      0.0059
     EDDAV:  cpu time      0.3691: real time      0.3721
       DOS:  cpu time      0.0008: real time      0.0008
    CHARGE:  cpu time      0.0837: real time      0.0841
    MIXING:  cpu time      0.0014: real time      0.0014
    --------------------------------------------
      LOOP:  cpu time      0.4801: real time      0.4837

 eigenvalue-minimisations  :   960
 total energy-change (2. order) : 0.5594674E+01  (-0.2223754E+01)
 number of electron     110.0001663 magnetization       7.8522798
 augmentation part       70.4536733 magnetization       5.1252225

 Broyden mixing:
  rms(total) = 0.61435E+00    rms(broyden)= 0.61416E+00
  rms(prec ) = 0.62403E+00
  weight for this iteration     100.00

 eigenvalues of (default mixing * dielectric matrix)
  average eigenvalue GAMMA=   0.8352
  1.0245  0.6459

 Free energy of the ion-electron system (eV)
  ---------------------------------------------------
  alpha Z        PSCENC =       249.32956877
  Ewald energy   TEWEN  =     44610.86902980
  -Hartree energ DENC   =    -57915.81283785
  -exchange      EXHF   =         0.00000000
  -V(xc)+E(xc)   XCENC  =       450.48467928
  PAW double counting   =     12657.30519268   -13711.69797437
  entropy T*S    EENTRO =        -0.00004376
  eigenvalues    EBANDS =      -278.84319659
  atomic energy  EATOM  =     13909.57640200
  Solvation  Ediel_sol  =         0.00000000
  ---------------------------------------------------
  free energy    TOTEN  =       -28.78918004 eV

  energy without entropy =      -28.78913628  energy(sigma->0) =      -28.78916545


--------------------------------------------------------------------------------------------------------




--------------------------------------- Iteration      1(   8)  ---------------------------------------


    POTLOK:  cpu time      0.0187: real time      0.0189
    SETDIJ:  cpu time      0.0056: real time      0.0057
     EDDAV:  cpu time      0.3820: real time      0.3849
       DOS:  cpu time      0.0008: real time      0.0008
    CHARGE:  cpu time      0.0844: real time      0.0847
    MIXING:  cpu time      0.0033: real time      0.0033
    --------------------------------------------
      LOOP:  cpu time      0.4948: real time      0.4983

 eigenvalue-minimisations  :  1008
 total energy-change (2. order) : 0.6036245E+00  (-0.4465497E+00)
 number of electron     110.0001651 magnetization       7.3363564
 augmentation part       70.1569240 magnetization       4.6168949

 Broyden mixing:
  rms(total) = 0.62018E+00    rms(broyden)= 0.62009E+00
  rms(prec ) = 0.64026E+00
  weight for this iteration     100.00

 eigenvalues of (default mixing * dielectric matrix)
  average eigenvalue GAMMA=   0.7308
  1.1229  0.6136  0.4559

 Free energy of the ion-electron system (eV)
  ---------------------------------------------------
  alpha Z        PSCENC =       249.32956877
  Ewald energy   TEWEN  =     44610.86902980
  -Hartree energ DENC   =    -57929.07321769
  -exchange      EXHF   =         0.00000000
  -V(xc)+E(xc)   XCENC  =       450.91084319
  PAW double counting   =     12830.84523958   -13897.63791428
  entropy T*S    EENTRO =        -0.00867641
  eigenvalues    EBANDS =      -252.99683044
  atomic energy  EATOM  =     13909.57640200
  Solvation  Ediel_sol  =         0.00000000
  ---------------------------------------------------
  free energy    TOTEN  =       -28.18555549 eV

  energy without entropy =      -28.17687908  energy(sigma->0) =      -28.18266335


--------------------------------------------------------------------------------------------------------




--------------------------------------- Iteration      1(   9)  ---------------------------------------


    POTLOK:  cpu time      0.0211: real time      0.0217
    SETDIJ:  cpu time      0.0059: real time      0.0059
     EDDAV:  cpu time      0.4265: real time      0.4297
       DOS:  cpu time      0.0008: real time      0.0008
    CHARGE:  cpu time      0.0853: real time      0.0857
    MIXING:  cpu time      0.0016: real time      0.0016
    --------------------------------------------
      LOOP:  cpu time      0.5413: real time      0.5455

 eigenvalue-minimisations  :  1144
 total energy-change (2. order) : 0.4886811E+00  (-0.1250784E+00)
 number of electron     110.0001653 magnetization       4.5638821
 augmentation part       70.0989847 magnetization       1.8682326

 Broyden mixing:
  rms(total) = 0.47634E+00    rms(broyden)= 0.47632E+00
  rms(prec ) = 0.47961E+00
  weight for this iteration     100.00

 eigenvalues of (default mixing * dielectric matrix)
  average eigenvalue GAMMA=   1.0944
  2.2069  1.0486  0.7225  0.3996

 Free energy of the ion-electron system (eV)
  ---------------------------------------------------
  alpha Z        PSCENC =       249.32956877
  Ewald energy   TEWEN  =     44610.86902980
  -Hartree energ DENC   =    -57938.48528845
  -exchange      EXHF   =         0.00000000
  -V(xc)+E(xc)   XCENC  =       450.78157464
  PAW double counting   =     12917.13400593   -13988.97218151
  entropy T*S    EENTRO =         0.00167412
  eigenvalues    EBANDS =      -237.93165967
  atomic energy  EATOM  =     13909.57640200
  Solvation  Ediel_sol  =         0.00000000
  ---------------------------------------------------
  free energy    TOTEN  =       -27.69687436 eV

  energy without entropy =      -27.69854848  energy(sigma->0) =      -27.69743240


--------------------------------------------------------------------------------------------------------




--------------------------------------- Iteration      1(  10)  ---------------------------------------


    POTLOK:  cpu time      0.0195: real time      0.0197
    SETDIJ:  cpu time      0.0057: real time      0.0057
     EDDAV:  cpu time      0.4030: real time      0.4060
       DOS:  cpu time      0.0008: real time      0.0008
    CHARGE:  cpu time      0.0873: real time      0.0882
    MIXING:  cpu time      0.0017: real time      0.0017
    --------------------------------------------
      LOOP:  cpu time      0.5181: real time      0.5221

 eigenvalue-minimisations  :  1080
 total energy-change (2. order) : 0.5605283E+00  (-0.2629797E+00)
 number of electron     110.0001666 magnetization       3.2295267
 augmentation part       70.6850395 magnetization       0.9868019

 Broyden mixing:
  rms(total) = 0.36529E+00    rms(broyden)= 0.36524E+00
  rms(prec ) = 0.38179E+00
  weight for this iteration     100.00

 eigenvalues of (default mixing * dielectric matrix)
  average eigenvalue GAMMA=   1.4184
  4.1413  1.1390  0.7020  0.7020  0.4077

 Free energy of the ion-electron system (eV)
  ---------------------------------------------------
  alpha Z        PSCENC =       249.32956877
  Ewald energy   TEWEN  =     44610.86902980
  -Hartree energ DENC   =    -57942.43758154
  -exchange      EXHF   =         0.00000000
  -V(xc)+E(xc)   XCENC  =       449.26141192
  PAW double counting   =     13194.88529105   -14277.73344558
  entropy T*S    EENTRO =         0.02002025
  eigenvalues    EBANDS =      -220.90704277
  atomic energy  EATOM  =     13909.57640200
  Solvation  Ediel_sol  =         0.00000000
  ---------------------------------------------------
  free energy    TOTEN  =       -27.13634611 eV

  energy without entropy =      -27.15636635  energy(sigma->0) =      -27.14301952


--------------------------------------------------------------------------------------------------------




--------------------------------------- Iteration      1(  11)  ---------------------------------------


    POTLOK:  cpu time      0.0187: real time      0.0189
    SETDIJ:  cpu time      0.0057: real time      0.0057
     EDDAV:  cpu time      0.4140: real time      0.4171
       DOS:  cpu time      0.0009: real time      0.0009
    CHARGE:  cpu time      0.0865: real time      0.0869
    MIXING:  cpu time      0.0016: real time      0.0017
    --------------------------------------------
      LOOP:  cpu time      0.5273: real time      0.5311

 eigenvalue-minimisations  :  1112
 total energy-change (2. order) :-0.1132372E+01  (-0.7958286E-01)
 number of electron     110.0001665 magnetization       2.6619302
 augmentation part       70.5004118 magnetization       0.6570018

 Broyden mixing:
  rms(total) = 0.30371E+00    rms(broyden)= 0.30365E+00
  rms(prec ) = 0.37534E+00
  weight for this iteration     100.00

 eigenvalues of (default mixing * dielectric matrix)
  average eigenvalue GAMMA=   1.4016
  4.9455  1.1903  0.7388  0.7388  0.3983  0.3983

 Free energy of the ion-electron system (eV)
  ---------------------------------------------------
  alpha Z        PSCENC =       249.32956877
  Ewald energy   TEWEN  =     44610.86902980
  -Hartree energ DENC   =    -57967.87369359
  -exchange      EXHF   =         0.00000000
  -V(xc)+E(xc)   XCENC  =       448.65629658
  PAW double counting   =     13234.50071081   -14321.42249616
  entropy T*S    EENTRO =         0.01539508
  eigenvalues    EBANDS =      -191.91993135
  atomic energy  EATOM  =     13909.57640200
  Solvation  Ediel_sol  =         0.00000000
  ---------------------------------------------------
  free energy    TOTEN  =       -28.26871806 eV

  energy without entropy =      -28.28411314  energy(sigma->0) =      -28.27384975


--------------------------------------------------------------------------------------------------------




--------------------------------------- Iteration      1(  12)  ---------------------------------------


    POTLOK:  cpu time      0.0185: real time      0.0188
    SETDIJ:  cpu time      0.0057: real time      0.0058
     EDDAV:  cpu time      0.4345: real time      0.4384
       DOS:  cpu time      0.0008: real time      0.0009
    CHARGE:  cpu time      0.0846: real time      0.0849
    MIXING:  cpu time      0.0017: real time      0.0017
    --------------------------------------------
      LOOP:  cpu time      0.5459: real time      0.5504

 eigenvalue-minimisations  :  1184
 total energy-change (2. order) :-0.8587623E+00  (-0.6653410E-01)
 number of electron     110.0001661 magnetization       2.3056975
 augmentation part       70.3588039 magnetization       0.4927269

 Broyden mixing:
  rms(total) = 0.19672E+00    rms(broyden)= 0.19660E+00
  rms(prec ) = 0.26216E+00
  weight for this iteration     100.00

 eigenvalues of (default mixing * dielectric matrix)
  average eigenvalue GAMMA=   1.4787
  6.0261  1.3981  0.8181  0.8181  0.6288  0.4114  0.2505

 Free energy of the ion-electron system (eV)
  ---------------------------------------------------
  alpha Z        PSCENC =       249.32956877
  Ewald energy   TEWEN  =     44610.86902980
  -Hartree energ DENC   =    -57974.56904032
  -exchange      EXHF   =         0.00000000
  -V(xc)+E(xc)   XCENC  =       448.29217269
  PAW double counting   =     13207.25845194   -14294.15504579
  entropy T*S    EENTRO =         0.00426399
  eigenvalues    EBANDS =      -185.73328341
  atomic energy  EATOM  =     13909.57640200
  Solvation  Ediel_sol  =         0.00000000
  ---------------------------------------------------
  free energy    TOTEN  =       -29.12748033 eV

  energy without entropy =      -29.13174432  energy(sigma->0) =      -29.12890166


--------------------------------------------------------------------------------------------------------




--------------------------------------- Iteration      1(  13)  ---------------------------------------


    POTLOK:  cpu time      0.0184: real time      0.0187
    SETDIJ:  cpu time      0.0056: real time      0.0056
     EDDAV:  cpu time      0.4273: real time      0.4305
       DOS:  cpu time      0.0009: real time      0.0008
    CHARGE:  cpu time      0.0830: real time      0.0833
    MIXING:  cpu time      0.0018: real time      0.0018
    --------------------------------------------
      LOOP:  cpu time      0.5370: real time      0.5409

 eigenvalue-minimisations  :  1160
 total energy-change (2. order) :-0.1080499E+01  (-0.7372381E-01)
 number of electron     110.0001655 magnetization       1.7859708
 augmentation part       70.2361142 magnetization       0.1605833

 Broyden mixing:
  rms(total) = 0.15681E+00    rms(broyden)= 0.15675E+00
  rms(prec ) = 0.17969E+00
  weight for this iteration     100.00

 eigenvalues of (default mixing * dielectric matrix)
  average eigenvalue GAMMA=   1.6164
  7.6143  1.9231  1.0047  0.6954  0.6954  0.4290  0.3687  0.2003

 Free energy of the ion-electron system (eV)
  ---------------------------------------------------
  alpha Z        PSCENC =       249.32956877
  Ewald energy   TEWEN  =     44610.86902980
  -Hartree energ DENC   =    -57974.07818325
  -exchange      EXHF   =         0.00000000
  -V(xc)+E(xc)   XCENC  =       447.76535185
  PAW double counting   =     13150.01364164   -14234.70679581
  entropy T*S    EENTRO =        -0.01193920
  eigenvalues    EBANDS =      -188.96505499
  atomic energy  EATOM  =     13909.57640200
  Solvation  Ediel_sol  =         0.00000000
  ---------------------------------------------------
  free energy    TOTEN  =       -30.20797919 eV

  energy without entropy =      -30.19603999  energy(sigma->0) =      -30.20399946


--------------------------------------------------------------------------------------------------------




--------------------------------------- Iteration      1(  14)  ---------------------------------------


    POTLOK:  cpu time      0.0187: real time      0.0190
    SETDIJ:  cpu time      0.0056: real time      0.0057
     EDDAV:  cpu time      0.4287: real time      0.4323
       DOS:  cpu time      0.0009: real time      0.0009
    CHARGE:  cpu time      0.0866: real time      0.0870
    MIXING:  cpu time      0.0020: real time      0.0020
    --------------------------------------------
      LOOP:  cpu time      0.5426: real time      0.5469

 eigenvalue-minimisations  :  1112
 total energy-change (2. order) :-0.1957705E+01  (-0.1394824E+00)
 number of electron     110.0001652 magnetization       1.3944809
 augmentation part       70.0957150 magnetization       0.2599532

 Broyden mixing:
  rms(total) = 0.11663E+00    rms(broyden)= 0.11653E+00
  rms(prec ) = 0.12749E+00
  weight for this iteration     100.00

 eigenvalues of (default mixing * dielectric matrix)
  average eigenvalue GAMMA=   1.6839
  8.6651  2.3480  1.1231  0.6986  0.6986  0.6120  0.4084  0.3967  0.2043

 Free energy of the ion-electron system (eV)
  ---------------------------------------------------
  alpha Z        PSCENC =       249.32956877
  Ewald energy   TEWEN  =     44610.86902980
  -Hartree energ DENC   =    -57971.35894395
  -exchange      EXHF   =         0.00000000
  -V(xc)+E(xc)   XCENC  =       446.65557640
  PAW double counting   =     13040.77762174   -14119.97510880
  entropy T*S    EENTRO =        -0.04959557
  eigenvalues    EBANDS =      -197.99023424
  atomic energy  EATOM  =     13909.57640200
  Solvation  Ediel_sol  =         0.00000000
  ---------------------------------------------------
  free energy    TOTEN  =       -32.16568384 eV

  energy without entropy =      -32.11608827  energy(sigma->0) =      -32.14915199


--------------------------------------------------------------------------------------------------------




--------------------------------------- Iteration      1(  15)  ---------------------------------------


    POTLOK:  cpu time      0.0194: real time      0.0197
    SETDIJ:  cpu time      0.0059: real time      0.0059
     EDDAV:  cpu time      0.3871: real time      0.3899
       DOS:  cpu time      0.0009: real time      0.0009
    CHARGE:  cpu time      0.0843: real time      0.0846
    MIXING:  cpu time      0.0020: real time      0.0020
    --------------------------------------------
      LOOP:  cpu time      0.4995: real time      0.5031

 eigenvalue-minimisations  :  1024
 total energy-change (2. order) :-0.8556320E+00  (-0.6493617E-01)
 number of electron     110.0001653 magnetization       0.9418225
 augmentation part       70.1498129 magnetization       0.2464577

 Broyden mixing:
  rms(total) = 0.10397E+00    rms(broyden)= 0.10388E+00
  rms(prec ) = 0.10909E+00
  weight for this iteration     100.00

 eigenvalues of (default mixing * dielectric matrix)
  average eigenvalue GAMMA=   1.5685
  8.8753  2.4496  1.1357  0.6752  0.6752  0.6046  0.4236  0.4236  0.2036  0.2189

 Free energy of the ion-electron system (eV)
  ---------------------------------------------------
  alpha Z        PSCENC =       249.32956877
  Ewald energy   TEWEN  =     44610.86902980
  -Hartree energ DENC   =    -57960.38488996
  -exchange      EXHF   =         0.00000000
  -V(xc)+E(xc)   XCENC  =       446.11541531
  PAW double counting   =     12996.25179636   -14072.53242594
  entropy T*S    EENTRO =        -0.05350949
  eigenvalues    EBANDS =      -212.19270266
  atomic energy  EATOM  =     13909.57640200
  Solvation  Ediel_sol  =         0.00000000
  ---------------------------------------------------
  free energy    TOTEN  =       -33.02131582 eV

  energy without entropy =      -32.96780632  energy(sigma->0) =      -33.00347932


--------------------------------------------------------------------------------------------------------




--------------------------------------- Iteration      1(  16)  ---------------------------------------


    POTLOK:  cpu time      0.0189: real time      0.0191
    SETDIJ:  cpu time      0.0057: real time      0.0057
     EDDAV:  cpu time      0.4074: real time      0.4111
       DOS:  cpu time      0.0009: real time      0.0009
    CHARGE:  cpu time      0.0842: real time      0.0845
    MIXING:  cpu time      0.0022: real time      0.0022
    --------------------------------------------
      LOOP:  cpu time      0.5192: real time      0.5235

 eigenvalue-minimisations  :  1096
 total energy-change (2. order) :-0.4737999E+00  (-0.3329787E-01)
 number of electron     110.0001654 magnetization       0.4246815
 augmentation part       70.1715831 magnetization       0.0123901

 Broyden mixing:
  rms(total) = 0.76654E-01    rms(broyden)= 0.76599E-01
  rms(prec ) = 0.81387E-01
  weight for this iteration     100.00

 eigenvalues of (default mixing * dielectric matrix)
  average eigenvalue GAMMA=   1.7339
 10.4843  2.8164  1.1457  0.8741  0.8741  0.6722  0.6722  0.5552  0.4092  0.3650
  0.2041

 Free energy of the ion-electron system (eV)
  ---------------------------------------------------
  alpha Z        PSCENC =       249.32956877
  Ewald energy   TEWEN  =     44610.86902980
  -Hartree energ DENC   =    -57953.66182415
  -exchange      EXHF   =         0.00000000
  -V(xc)+E(xc)   XCENC  =       445.87008125
  PAW double counting   =     12978.17382567   -14053.45966927
  entropy T*S    EENTRO =        -0.04099956
  eigenvalues    EBANDS =      -220.15153020
  atomic energy  EATOM  =     13909.57640200
  Solvation  Ediel_sol  =         0.00000000
  ---------------------------------------------------
  free energy    TOTEN  =       -33.49511570 eV

  energy without entropy =      -33.45411614  energy(sigma->0) =      -33.48144918


--------------------------------------------------------------------------------------------------------




--------------------------------------- Iteration      1(  17)  ---------------------------------------


    POTLOK:  cpu time      0.0185: real time      0.0188
    SETDIJ:  cpu time      0.0057: real time      0.0057
     EDDAV:  cpu time      0.4066: real time      0.4096
       DOS:  cpu time      0.0009: real time      0.0009
    CHARGE:  cpu time      0.0845: real time      0.0849
    MIXING:  cpu time      0.0020: real time      0.0020
    --------------------------------------------
      LOOP:  cpu time      0.5181: real time      0.5219

 eigenvalue-minimisations  :  1096
 total energy-change (2. order) :-0.2447433E+00  (-0.2507421E-01)
 number of electron     110.0001656 magnetization       0.4665538
 augmentation part       70.1969677 magnetization       0.2907965

 Broyden mixing:
  rms(total) = 0.48661E-01    rms(broyden)= 0.48564E-01
  rms(prec ) = 0.53829E-01
  weight for this iteration     100.00

 eigenvalues of (default mixing * dielectric matrix)
  average eigenvalue GAMMA=   1.7198
 11.2103  2.7797  1.1328  0.9655  0.9655  0.8045  0.8045  0.6294  0.2041  0.4207
  0.3701  0.3505

 Free energy of the ion-electron system (eV)
  ---------------------------------------------------
  alpha Z        PSCENC =       249.32956877
  Ewald energy   TEWEN  =     44610.86902980
  -Hartree energ DENC   =    -57946.05036301
  -exchange      EXHF   =         0.00000000
  -V(xc)+E(xc)   XCENC  =       445.72607687
  PAW double counting   =     12969.94597209   -14044.56844607
  entropy T*S    EENTRO =        -0.03607518
  eigenvalues    EBANDS =      -228.53202424
  atomic energy  EATOM  =     13909.57640200
  Solvation  Ediel_sol  =         0.00000000
  ---------------------------------------------------
  free energy    TOTEN  =       -33.73985896 eV

  energy without entropy =      -33.70378378  energy(sigma->0) =      -33.72783390


--------------------------------------------------------------------------------------------------------




--------------------------------------- Iteration      1(  18)  ---------------------------------------


    POTLOK:  cpu time      0.0186: real time      0.0188
    SETDIJ:  cpu time      0.0057: real time      0.0058
     EDDAV:  cpu time      0.4143: real time      0.4179
       DOS:  cpu time      0.0009: real time      0.0009
    CHARGE:  cpu time      0.0861: real time      0.0864
    MIXING:  cpu time      0.0021: real time      0.0021
    --------------------------------------------
      LOOP:  cpu time      0.5277: real time      0.5320

 eigenvalue-minimisations  :  1120
 total energy-change (2. order) :-0.1895980E+00  (-0.6617950E-02)
 number of electron     110.0001657 magnetization       0.3421246
 augmentation part       70.2188980 magnetization       0.2124731

 Broyden mixing:
  rms(total) = 0.45730E-01    rms(broyden)= 0.45710E-01
  rms(prec ) = 0.55979E-01
  weight for this iteration     100.00

 eigenvalues of (default mixing * dielectric matrix)
  average eigenvalue GAMMA=   1.7615
 11.5993  2.9298  1.6449  1.6449  0.8594  0.8594  0.7383  0.6492  0.6492  0.2041
  0.4128  0.3608  0.3476

 Free energy of the ion-electron system (eV)
  ---------------------------------------------------
  alpha Z        PSCENC =       249.32956877
  Ewald energy   TEWEN  =     44610.86902980
  -Hartree energ DENC   =    -57940.87245661
  -exchange      EXHF   =         0.00000000
  -V(xc)+E(xc)   XCENC  =       445.48685399
  PAW double counting   =     12980.27465500   -14054.96508245
  entropy T*S    EENTRO =        -0.03766976
  eigenvalues    EBANDS =      -233.59075774
  atomic energy  EATOM  =     13909.57640200
  Solvation  Ediel_sol  =         0.00000000
  ---------------------------------------------------
  free energy    TOTEN  =       -33.92945700 eV

  energy without entropy =      -33.89178724  energy(sigma->0) =      -33.91690042


--------------------------------------------------------------------------------------------------------




--------------------------------------- Iteration      1(  19)  ---------------------------------------


    POTLOK:  cpu time      0.0184: real time      0.0187
    SETDIJ:  cpu time      0.0056: real time      0.0057
     EDDAV:  cpu time      0.4368: real time      0.4402
       DOS:  cpu time      0.0009: real time      0.0009
    CHARGE:  cpu time      0.0849: real time      0.0853
    MIXING:  cpu time      0.0021: real time      0.0021
    --------------------------------------------
      LOOP:  cpu time      0.5489: real time      0.5528

 eigenvalue-minimisations  :  1200
 total energy-change (2. order) :-0.7214326E-01  (-0.3040700E-02)
 number of electron     110.0001657 magnetization       0.1561605
 augmentation part       70.2382895 magnetization       0.0980875

 Broyden mixing:
  rms(total) = 0.26925E-01    rms(broyden)= 0.26905E-01
  rms(prec ) = 0.32983E-01
  weight for this iteration     100.00

 eigenvalues of (default mixing * dielectric matrix)
  average eigenvalue GAMMA=   1.7842
 12.4973  3.1667  2.2900  1.1885  0.9036  0.9036  0.7502  0.7502  0.6030  0.6030
  0.2041  0.4110  0.3642  0.3436

 Free energy of the ion-electron system (eV)
  ---------------------------------------------------
  alpha Z        PSCENC =       249.32956877
  Ewald energy   TEWEN  =     44610.86902980
  -Hartree energ DENC   =    -57929.52612633
  -exchange      EXHF   =         0.00000000
  -V(xc)+E(xc)   XCENC  =       445.40057683
  PAW double counting   =     12981.97625829   -14056.76624204
  entropy T*S    EENTRO =        -0.03146754
  eigenvalues    EBANDS =      -244.82960004
  atomic energy  EATOM  =     13909.57640200
  Solvation  Ediel_sol  =         0.00000000
  ---------------------------------------------------
  free energy    TOTEN  =       -34.00160027 eV

  energy without entropy =      -33.97013273  energy(sigma->0) =      -33.99111109


--------------------------------------------------------------------------------------------------------




--------------------------------------- Iteration      1(  20)  ---------------------------------------


    POTLOK:  cpu time      0.0184: real time      0.0187
    SETDIJ:  cpu time      0.0057: real time      0.0057
     EDDAV:  cpu time      0.3623: real time      0.3656
       DOS:  cpu time      0.0009: real time      0.0009
    CHARGE:  cpu time      0.0848: real time      0.0851
    MIXING:  cpu time      0.0023: real time      0.0023
    --------------------------------------------
      LOOP:  cpu time      0.4743: real time      0.4783

 eigenvalue-minimisations  :   944
 total energy-change (2. order) :-0.8297804E-01  (-0.1912952E-02)
 number of electron     110.0001657 magnetization       0.2507321
 augmentation part       70.2383519 magnetization       0.2374779

 Broyden mixing:
  rms(total) = 0.25648E-01    rms(broyden)= 0.25641E-01
  rms(prec ) = 0.30162E-01
  weight for this iteration     100.00

 eigenvalues of (default mixing * dielectric matrix)
  average eigenvalue GAMMA=   1.7545
 12.1588  3.0299  3.0299  1.3634  0.9166  0.9166  0.8163  0.8163  0.7196  0.6125
  0.6125  0.2041  0.4106  0.3691  0.3416

 Free energy of the ion-electron system (eV)
  ---------------------------------------------------
  alpha Z        PSCENC =       249.32956877
  Ewald energy   TEWEN  =     44610.86902980
  -Hartree energ DENC   =    -57919.45350549
  -exchange      EXHF   =         0.00000000
  -V(xc)+E(xc)   XCENC  =       445.28535706
  PAW double counting   =     12994.20001838   -14069.95871144
  entropy T*S    EENTRO =        -0.02903773
  eigenvalues    EBANDS =      -253.90369965
  atomic energy  EATOM  =     13909.57640200
  Solvation  Ediel_sol  =         0.00000000
  ---------------------------------------------------
  free energy    TOTEN  =       -34.08457831 eV

  energy without entropy =      -34.05554057  energy(sigma->0) =      -34.07489906


--------------------------------------------------------------------------------------------------------




--------------------------------------- Iteration      1(  21)  ---------------------------------------


    POTLOK:  cpu time      0.0184: real time      0.0187
    SETDIJ:  cpu time      0.0056: real time      0.0056
     EDDAV:  cpu time      0.3901: real time      0.3930
       DOS:  cpu time      0.0009: real time      0.0009
    CHARGE:  cpu time      0.0848: real time      0.0851
    MIXING:  cpu time      0.0023: real time      0.0023
    --------------------------------------------
      LOOP:  cpu time      0.5021: real time      0.5057

 eigenvalue-minimisations  :  1040
 total energy-change (2. order) :-0.1316317E+00  (-0.9525940E-03)
 number of electron     110.0001657 magnetization       0.1765564
 augmentation part       70.2278717 magnetization       0.1409314

 Broyden mixing:
  rms(total) = 0.19055E-01    rms(broyden)= 0.19047E-01
  rms(prec ) = 0.21786E-01
  weight for this iteration     100.00

 eigenvalues of (default mixing * dielectric matrix)
  average eigenvalue GAMMA=   1.7770
 12.0369  4.0190  3.0379  1.7130  0.9443  0.9443  1.0029  0.8098  0.8098  0.6353
  0.5764  0.5764  0.2041  0.4107  0.3696  0.3410

 Free energy of the ion-electron system (eV)
  ---------------------------------------------------
  alpha Z        PSCENC =       249.32956877
  Ewald energy   TEWEN  =     44610.86902980
  -Hartree energ DENC   =    -57912.90021184
  -exchange      EXHF   =         0.00000000
  -V(xc)+E(xc)   XCENC  =       445.15047596
  PAW double counting   =     12999.89069506   -14076.18675298
  entropy T*S    EENTRO =        -0.02890590
  eigenvalues    EBANDS =      -259.91651086
  atomic energy  EATOM  =     13909.57640200
  Solvation  Ediel_sol  =         0.00000000
  ---------------------------------------------------
  free energy    TOTEN  =       -34.21620999 eV

  energy without entropy =      -34.18730409  energy(sigma->0) =      -34.20657469


--------------------------------------------------------------------------------------------------------




--------------------------------------- Iteration      1(  22)  ---------------------------------------


    POTLOK:  cpu time      0.0185: real time      0.0187
    SETDIJ:  cpu time      0.0056: real time      0.0056
     EDDAV:  cpu time      0.3694: real time      0.3726
       DOS:  cpu time      0.0009: real time      0.0009
    CHARGE:  cpu time      0.0878: real time      0.0881
    MIXING:  cpu time      0.0028: real time      0.0028
    --------------------------------------------
      LOOP:  cpu time      0.4849: real time      0.4888

 eigenvalue-minimisations  :   904
 total energy-change (2. order) :-0.7782161E-01  (-0.6733097E-03)
 number of electron     110.0001656 magnetization       0.1091578
 augmentation part       70.2263300 magnetization       0.0839157

 Broyden mixing:
  rms(total) = 0.13868E-01    rms(broyden)= 0.13867E-01
  rms(prec ) = 0.14871E-01
  weight for this iteration     100.00

 eigenvalues of (default mixing * dielectric matrix)
  average eigenvalue GAMMA=   1.7954
 12.0392  3.9857  3.9857  1.8997  1.1366  0.9915  0.9915  0.8091  0.8091  0.6652
  0.6652  0.6090  0.6090  0.2041  0.4107  0.3693  0.3411

 Free energy of the ion-electron system (eV)
  ---------------------------------------------------
  alpha Z        PSCENC =       249.32956877
  Ewald energy   TEWEN  =     44610.86902980
  -Hartree energ DENC   =    -57903.78861140
  -exchange      EXHF   =         0.00000000
  -V(xc)+E(xc)   XCENC  =       445.06057966
  PAW double counting   =     12998.14441510   -14074.52171959
  entropy T*S    EENTRO =        -0.02842888
  eigenvalues    EBANDS =      -268.93526705
  atomic energy  EATOM  =     13909.57640200
  Solvation  Ediel_sol  =         0.00000000
  ---------------------------------------------------
  free energy    TOTEN  =       -34.29403160 eV

  energy without entropy =      -34.26560271  energy(sigma->0) =      -34.28455530


--------------------------------------------------------------------------------------------------------




--------------------------------------- Iteration      1(  23)  ---------------------------------------


    POTLOK:  cpu time      0.0193: real time      0.0195
    SETDIJ:  cpu time      0.0059: real time      0.0059
     EDDAV:  cpu time      0.3157: real time      0.3181
       DOS:  cpu time      0.0009: real time      0.0009
    CHARGE:  cpu time      0.0845: real time      0.0849
    MIXING:  cpu time      0.0026: real time      0.0026
    --------------------------------------------
      LOOP:  cpu time      0.4289: real time      0.4319

 eigenvalue-minimisations  :   768
 total energy-change (2. order) :-0.4684178E-01  (-0.1287829E-03)
 number of electron     110.0001657 magnetization      -0.0025703
 augmentation part       70.2307609 magnetization      -0.0194365

 Broyden mixing:
  rms(total) = 0.86097E-02    rms(broyden)= 0.86085E-02
  rms(prec ) = 0.97319E-02
  weight for this iteration     100.00

 eigenvalues of (default mixing * dielectric matrix)
  average eigenvalue GAMMA=   1.8417
 12.3479  5.3159  3.5715  2.1911  1.1530  1.1010  1.1010  0.8744  0.8744  0.7318
  0.7318  0.6396  0.5963  0.5963  0.2041  0.4107  0.3694  0.3410

 Free energy of the ion-electron system (eV)
  ---------------------------------------------------
  alpha Z        PSCENC =       249.32956877
  Ewald energy   TEWEN  =     44610.86902980
  -Hartree energ DENC   =    -57900.80020288
  -exchange      EXHF   =         0.00000000
  -V(xc)+E(xc)   XCENC  =       444.99676228
  PAW double counting   =     12998.84681577   -14075.20792447
  entropy T*S    EENTRO =        -0.02829865
  eigenvalues    EBANDS =      -271.92302601
  atomic energy  EATOM  =     13909.57640200
  Solvation  Ediel_sol  =         0.00000000
  ---------------------------------------------------
  free energy    TOTEN  =       -34.34087338 eV

  energy without entropy =      -34.31257474  energy(sigma->0) =      -34.33144050


--------------------------------------------------------------------------------------------------------




--------------------------------------- Iteration      1(  24)  ---------------------------------------


    POTLOK:  cpu time      0.0184: real time      0.0187
    SETDIJ:  cpu time      0.0057: real time      0.0057
     EDDAV:  cpu time      0.3457: real time      0.3487
       DOS:  cpu time      0.0009: real time      0.0009
    CHARGE:  cpu time      0.0844: real time      0.0848
    MIXING:  cpu time      0.0027: real time      0.0027
    --------------------------------------------
      LOOP:  cpu time      0.4578: real time      0.4614

 eigenvalue-minimisations  :   880
 total energy-change (2. order) :-0.2392678E-01  (-0.2373219E-03)
 number of electron     110.0001657 magnetization       0.0427686
 augmentation part       70.2443661 magnetization       0.0496464

 Broyden mixing:
  rms(total) = 0.62341E-02    rms(broyden)= 0.62264E-02
  rms(prec ) = 0.72086E-02
  weight for this iteration     100.00

 eigenvalues of (default mixing * dielectric matrix)
  average eigenvalue GAMMA=   1.8870
 12.1420  6.0335  4.3596  2.2960  1.4295  1.4295  0.9093  0.9093  0.9084  0.9084
  0.7114  0.7114  0.6187  0.5805  0.5805  0.2041  0.4107  0.3694  0.3411

 Free energy of the ion-electron system (eV)
  ---------------------------------------------------
  alpha Z        PSCENC =       249.32956877
  Ewald energy   TEWEN  =     44610.86902980
  -Hartree energ DENC   =    -57895.44096651
  -exchange      EXHF   =         0.00000000
  -V(xc)+E(xc)   XCENC  =       444.96357306
  PAW double counting   =     12995.14897654   -14071.21161603
  entropy T*S    EENTRO =        -0.02879503
  eigenvalues    EBANDS =      -277.57097277
  atomic energy  EATOM  =     13909.57640200
  Solvation  Ediel_sol  =         0.00000000
  ---------------------------------------------------
  free energy    TOTEN  =       -34.36480016 eV

  energy without entropy =      -34.33600513  energy(sigma->0) =      -34.35520182


--------------------------------------------------------------------------------------------------------




--------------------------------------- Iteration      1(  25)  ---------------------------------------


    POTLOK:  cpu time      0.0184: real time      0.0187
    SETDIJ:  cpu time      0.0056: real time      0.0057
     EDDAV:  cpu time      0.3339: real time      0.3364
       DOS:  cpu time      0.0009: real time      0.0009
    CHARGE:  cpu time      0.0845: real time      0.0848
    MIXING:  cpu time      0.0028: real time      0.0028
    --------------------------------------------
      LOOP:  cpu time      0.4461: real time      0.4493

 eigenvalue-minimisations  :   824
 total energy-change (2. order) :-0.2244233E-01  (-0.9729201E-04)
 number of electron     110.0001657 magnetization       0.0032426
 augmentation part       70.2375870 magnetization      -0.0024698

 Broyden mixing:
  rms(total) = 0.41191E-02    rms(broyden)= 0.41180E-02
  rms(prec ) = 0.45297E-02
  weight for this iteration     100.00

 eigenvalues of (default mixing * dielectric matrix)
  average eigenvalue GAMMA=   1.9048
 12.1540  7.2911  4.0427  2.5337  1.8222  1.3033  0.9519  0.9519  0.8935  0.8935
  0.7229  0.7229  0.7201  0.6150  0.5761  0.5761  0.2041  0.4107  0.3693  0.3411

 Free energy of the ion-electron system (eV)
  ---------------------------------------------------
  alpha Z        PSCENC =       249.32956877
  Ewald energy   TEWEN  =     44610.86902980
  -Hartree energ DENC   =    -57896.59763014
  -exchange      EXHF   =         0.00000000
  -V(xc)+E(xc)   XCENC  =       444.95148067
  PAW double counting   =     12995.93840764   -14071.95485214
  entropy T*S    EENTRO =        -0.02838188
  eigenvalues    EBANDS =      -276.47126722
  atomic energy  EATOM  =     13909.57640200
  Solvation  Ediel_sol  =         0.00000000
  ---------------------------------------------------
  free energy    TOTEN  =       -34.38724249 eV

  energy without entropy =      -34.35886061  energy(sigma->0) =      -34.37778186


--------------------------------------------------------------------------------------------------------




--------------------------------------- Iteration      1(  26)  ---------------------------------------


    POTLOK:  cpu time      0.0184: real time      0.0187
    SETDIJ:  cpu time      0.0057: real time      0.0057
     EDDAV:  cpu time      0.2960: real time      0.2982
       DOS:  cpu time      0.0009: real time      0.0009
    CHARGE:  cpu time      0.0836: real time      0.0845
    MIXING:  cpu time      0.0030: real time      0.0030
    --------------------------------------------
      LOOP:  cpu time      0.4076: real time      0.4109

 eigenvalue-minimisations  :   696
 total energy-change (2. order) :-0.3309284E-02  (-0.3612597E-04)
 number of electron     110.0001657 magnetization       0.0039643
 augmentation part       70.2402449 magnetization       0.0055898

 Broyden mixing:
  rms(total) = 0.18146E-02    rms(broyden)= 0.18132E-02
  rms(prec ) = 0.24862E-02
  weight for this iteration     100.00

 eigenvalues of (default mixing * dielectric matrix)
  average eigenvalue GAMMA=   1.9176
 12.0003  7.9211  4.0422  2.8886  2.1071  1.2757  1.2757  0.9012  0.9012  0.8759
  0.8759  0.2041  0.3411  0.3693  0.4107  0.7286  0.7286  0.5832  0.5832  0.6697
  0.5875

 Free energy of the ion-electron system (eV)
  ---------------------------------------------------
  alpha Z        PSCENC =       249.32956877
  Ewald energy   TEWEN  =     44610.86902980
  -Hartree energ DENC   =    -57894.46887515
  -exchange      EXHF   =         0.00000000
  -V(xc)+E(xc)   XCENC  =       444.94871468
  PAW double counting   =     12994.58456340   -14070.51561173
  entropy T*S    EENTRO =        -0.02856244
  eigenvalues    EBANDS =      -278.68578110
  atomic energy  EATOM  =     13909.57640200
  Solvation  Ediel_sol  =         0.00000000
  ---------------------------------------------------
  free energy    TOTEN  =       -34.39055177 eV

  energy without entropy =      -34.36198933  energy(sigma->0) =      -34.38103096


[...]
     26      -2.4751      1.00000
     27      -2.4472      1.00000
     28      -2.3435      1.00000
     29      -2.2665      1.00000
     30      -2.1485      1.00000
     31      -2.0715      1.00000
     32      -2.0283      1.00000
     33      -1.9035      1.00000
     34      -1.8990      1.00000
     35      -1.8968      1.00000
     36      -1.8626      1.00000
     37      -1.8595      1.00000
     38      -1.8246      1.00000
     39      -1.8142      1.00000
     40      -1.7259      1.00000
     41      -1.6824      1.00000
     42      -1.6531      1.00000
     43      -1.6509      1.00000
     44      -1.6196      1.00000
     45      -1.5893      1.00000
     46      -1.5818      1.00000
     47      -1.4923      1.00000
     48      -1.4671      1.00000
     49      -1.4470      1.00000
     50      -1.3950      1.00000
     51      -1.2107      1.00000
     52      -1.2042      1.00000
     53      -1.0771      1.00000
     54      -1.0496      1.00000
     55       0.0081      1.01384
     56       0.0958      1.03257
     57       1.4694     -0.00000
     58       2.0586     -0.00000
     59       3.4813     -0.00000
     60       3.7429     -0.00000
     61       4.7222     -0.00000
     62       5.8234     -0.00000
     63       5.9032      0.00000
     64       6.1306      0.00000
     65       6.4248      0.00000
     66       7.1792      0.00000
     67       7.8460      0.00000
     68       8.1113      0.00000
     69       8.1147      0.00000
     70       8.8755      0.00000
     71       8.9351      0.00000
     72       9.2755      0.00000

 k-point     3 :       0.3333    0.3333    0.0000
  band No.  band energies     occupation 
      1      -6.2865      1.00000
      2      -5.4455      1.00000
      3      -4.5730      1.00000
      4      -4.3734      1.00000
      5      -4.3355      1.00000
      6      -4.2127      1.00000
      7      -3.9465      1.00000
      8      -3.9094      1.00000
      9      -3.7913      1.00000
     10      -3.7064      1.00000
     11      -3.4455      1.00000
     12      -3.2703      1.00000
     13      -3.1757      1.00000
     14      -3.1459      1.00000
     15      -2.9990      1.00000
     16      -2.9545      1.00000
     17      -2.9053      1.00000
     18      -2.8858      1.00000
     19      -2.8383      1.00000
     20      -2.6969      1.00000
     21      -2.6802      1.00000
     22      -2.6505      1.00000
     23      -2.6175      1.00000
     24      -2.6133      1.00000
     25      -2.6032      1.00000
     26      -2.6000      1.00000
     27      -2.4724      1.00000
     28      -2.4410      1.00000
     29      -2.3466      1.00000
     30      -2.2928      1.00000
     31      -2.2829      1.00000
     32      -2.2811      1.00000
     33      -2.2546      1.00000
     34      -2.1329      1.00000
     35      -2.1192      1.00000
     36      -2.0711      1.00000
     37      -2.0446      1.00000
     38      -1.8963      1.00000
     39      -1.8216      1.00000
     40      -1.7611      1.00000
     41      -1.6184      1.00000
     42      -1.5681      1.00000
     43      -1.5541      1.00000
     44      -1.5202      1.00000
     45      -1.4963      1.00000
     46      -1.4366      1.00000
     47      -1.3619      1.00000
     48      -1.3550      1.00000
     49      -1.3062      1.00000
     50      -1.3051      1.00000
     51      -1.2627      1.00000
     52      -1.2481      1.00000
     53      -1.1039      1.00000
     54       0.3494      0.59197
     55       0.3820      0.45444
     56       0.7524     -0.01072
     57       0.8136     -0.00380
     58       1.0438     -0.00001
     59       1.4398     -0.00000
     60       2.8986     -0.00000
     61       3.7147     -0.00000
     62       4.1758     -0.00000
     63       4.3479     -0.00000
     64       4.7329     -0.00000
     65       5.6944     -0.00000
     66       5.6961     -0.00000
     67       6.7896      0.00000
     68       6.8552      0.00000
     69       7.1531      0.00000
     70       7.7264      0.00000
     71       8.0126      0.00000
     72       8.3949      0.00000


--------------------------------------------------------------------------------------------------------


 soft charge-density along one line, spin component           1
         0         1         2         3         4         5         6         7         8         9
 total charge-density along one line
 
 soft charge-density along one line, spin component           2
         0         1         2         3         4         5         6         7         8         9
 total charge-density along one line
 
 pseudopotential strength for first ion, spin component:           1
 -7.978  -0.000   0.000  -0.000  -0.000  -0.892   0.000  -0.000
 -0.000  -7.916  -0.000   0.000   0.000   0.000  -0.940   0.000
  0.000  -0.000  -7.899  -0.000   0.000  -0.000   0.000  -0.953
 -0.000   0.000  -0.000  -7.916  -0.000   0.000  -0.000   0.000
 -0.000   0.000   0.000  -0.000  -7.952   0.000  -0.000   0.000
 -0.892   0.000  -0.000   0.000   0.000   7.617  -0.000  -0.000
  0.000  -0.940   0.000  -0.000  -0.000  -0.000   7.652  -0.000
 -0.000   0.000  -0.953   0.000   0.000  -0.000  -0.000   7.661
  0.000  -0.000   0.000  -0.940   0.000  -0.000   0.000  -0.000
  0.000  -0.000   0.000   0.000  -0.911  -0.000   0.000  -0.000
 -0.000   0.000  -0.009   0.000  -0.000  -0.000   0.000   0.003
 -0.000   0.000  -0.016   0.000   0.000  -0.000   0.000   0.006
  0.000  -0.011  -0.000   0.000  -0.000  -0.000   0.010   0.000
  0.000   0.000  -0.012   0.000  -0.000   0.000  -0.000   0.010
  0.000   0.000  -0.000  -0.011   0.000  -0.000   0.000   0.000
  0.000  -0.012  -0.000  -0.000  -0.000   0.000   0.012  -0.000
 -0.000   0.000  -0.013   0.000   0.000   0.000   0.000   0.011
  0.000  -0.000  -0.000  -0.012   0.000   0.000   0.000  -0.000
 pseudopotential strength for first ion, spin component:           2
 -7.978  -0.000  -0.000  -0.000  -0.000  -0.892   0.000   0.000
 -0.000  -7.916  -0.000   0.000   0.000   0.000  -0.940   0.000
 -0.000  -0.000  -7.899  -0.000   0.000   0.000   0.000  -0.953
 -0.000   0.000  -0.000  -7.916  -0.000   0.000  -0.000   0.000
 -0.000   0.000   0.000  -0.000  -7.952   0.000  -0.000   0.000
 -0.892   0.000   0.000   0.000   0.000   7.617  -0.000  -0.000
  0.000  -0.940   0.000  -0.000  -0.000  -0.000   7.652  -0.000
  0.000   0.000  -0.953   0.000   0.000  -0.000  -0.000   7.661
  0.000  -0.000   0.000  -0.940   0.000  -0.000   0.000  -0.000
  0.000  -0.000   0.000   0.000  -0.911  -0.000   0.000  -0.000
 -0.000   0.000  -0.009   0.000   0.000  -0.000   0.000   0.003
 -0.000   0.000  -0.016   0.000   0.000  -0.000   0.000   0.006
  0.000  -0.011  -0.000   0.000  -0.000  -0.000   0.010   0.000
  0.000   0.000  -0.012   0.000  -0.000   0.000  -0.000   0.010
  0.000   0.000  -0.000  -0.011   0.000  -0.000   0.000   0.000
  0.000  -0.012  -0.000  -0.000  -0.000   0.000   0.012  -0.000
 -0.000   0.000  -0.013   0.000   0.000   0.000   0.000   0.011
  0.000  -0.000  -0.000  -0.012   0.000   0.000   0.000  -0.000
 total augmentation occupancy for first ion, spin component:           1
  1.894   0.000   0.000   0.000   0.000  -0.003   0.000   0.000  -0.000  -0.000   0.000  -0.000   0.000   0.000   0.000   0.000
  0.000   1.932  -0.000   0.000   0.000   0.000  -0.027   0.000  -0.000   0.000   0.000   0.000   0.028   0.000   0.000  -0.014
  0.000   0.000   1.934   0.000   0.000   0.000  -0.000  -0.034  -0.000   0.000   0.018   0.007   0.000   0.042  -0.000   0.000
 -0.000   0.000   0.000   1.932  -0.000   0.000  -0.000   0.000  -0.027   0.000   0.000   0.000   0.000  -0.000   0.028   0.000
  0.000  -0.000   0.000   0.000   1.925  -0.000   0.000   0.000   0.000  -0.033   0.000  -0.000   0.000   0.000   0.000   0.000
 -0.003   0.000   0.000   0.000  -0.000   0.011   0.000   0.000  -0.000   0.000   0.000   0.000   0.000   0.000   0.000   0.000
  0.000  -0.027   0.000   0.000  -0.000   0.000   0.010   0.000   0.000  -0.000   0.000   0.000   0.023   0.000   0.000  -0.001
  0.000   0.000  -0.034   0.000   0.000  -0.000   0.000   0.011  -0.000   0.000  -0.035   0.001   0.000   0.018   0.000   0.000
  0.000   0.000   0.000  -0.027   0.000  -0.000   0.000   0.000   0.010   0.000   0.000   0.000   0.000  -0.000   0.023   0.000
 -0.000   0.000   0.000  -0.000  -0.033   0.000   0.000   0.000   0.000   0.011   0.000  -0.000   0.000   0.000   0.000   0.000
 -0.000   0.000   0.018   0.000   0.000  -0.000   0.000  -0.035  -0.000   0.000   1.631  -0.122   0.000   0.155  -0.000   0.000
  0.000   0.000   0.007   0.000  -0.000   0.000   0.000   0.001   0.000   0.000  -0.122   0.015   0.000  -0.025  -0.000   0.000
  0.000   0.028   0.000   0.000   0.000   0.000   0.023   0.000   0.000   0.000   0.000   0.000   0.174   0.000  -0.000  -0.011
  0.000   0.000   0.042  -0.000   0.000   0.000  -0.000   0.018  -0.000   0.000   0.155  -0.025   0.000   0.116   0.000   0.000
  0.000  -0.000   0.000   0.028  -0.000  -0.000   0.000   0.000   0.023  -0.000   0.000  -0.000   0.000   0.000   0.174   0.000
  0.000  -0.014  -0.000   0.000   0.000  -0.000  -0.001   0.000   0.000   0.000   0.000   0.000  -0.011   0.000   0.000   0.001
  0.000   0.000  -0.017  -0.000   0.000   0.000   0.000  -0.001   0.000   0.000  -0.022   0.003   0.000  -0.008  -0.000   0.000
 -0.000   0.000   0.000  -0.014   0.000   0.000   0.000  -0.000  -0.001   0.000  -0.000   0.000   0.000  -0.000  -0.011   0.000
 total augmentation occupancy for first ion, spin component:           2
 -0.000  -0.000   0.000   0.000  -0.000   0.000  -0.000   0.000   0.000   0.000   0.000   0.000  -0.000   0.000  -0.000   0.000
  0.000   0.000  -0.000   0.000   0.000   0.000   0.000   0.000   0.000   0.000   0.000   0.000   0.000   0.000   0.000  -0.000
  0.000   0.000  -0.000   0.000   0.000   0.000  -0.000  -0.000   0.000   0.000  -0.000  -0.000   0.000   0.000  -0.000   0.000
  0.000   0.000   0.000   0.000   0.000   0.000   0.000   0.000   0.000   0.000   0.000   0.000   0.000  -0.000   0.000   0.000
  0.000  -0.000   0.000  -0.000   0.000   0.000  -0.000   0.000  -0.000   0.000  -0.000   0.000   0.000  -0.000   0.000   0.000
  0.000   0.000   0.000   0.000   0.000  -0.000   0.000   0.000   0.000   0.000   0.000   0.000   0.000  -0.000  -0.000  -0.000
  0.000   0.000   0.000   0.000   0.000   0.000  -0.000   0.000   0.000   0.000   0.000   0.000  -0.000  -0.000   0.000   0.000
  0.000   0.000  -0.000   0.000   0.000   0.000   0.000   0.000  -0.000  -0.000  -0.000  -0.000  -0.000   0.000   0.000   0.000
  0.000   0.000   0.000   0.000   0.000   0.000   0.000  -0.000  -0.000   0.000   0.000  -0.000   0.000   0.000  -0.000  -0.000
  0.000   0.000   0.000   0.000   0.000   0.000  -0.000  -0.000  -0.000  -0.000   0.000   0.000   0.000   0.000  -0.000   0.000
  0.000   0.000  -0.000  -0.000  -0.000   0.000   0.000  -0.000  -0.000   0.000  -0.000   0.000   0.000  -0.000   0.000   0.000
  0.000   0.000  -0.000   0.000   0.000   0.000   0.000  -0.000   0.000   0.000   0.000  -0.000   0.000   0.000   0.000   0.000
  0.000   0.000   0.000   0.000   0.000   0.000  -0.000   0.000   0.000   0.000   0.000   0.000  -0.000   0.000   0.000   0.000
  0.000   0.000   0.000  -0.000  -0.000  -0.000   0.000   0.000  -0.000   0.000  -0.000   0.000  -0.000  -0.000  -0.000   0.000
  0.000   0.000  -0.000   0.000  -0.000   0.000   0.000   0.000  -0.000   0.000   0.000  -0.000   0.000   0.000  -0.000   0.000
 -0.000  -0.000   0.000   0.000   0.000   0.000   0.000   0.000  -0.000   0.000   0.000   0.000   0.000   0.000   0.000  -0.000
 -0.000   0.000   0.000   0.000   0.000   0.000   0.000   0.000  -0.000   0.000   0.000  -0.000   0.000   0.000  -0.000   0.000
 -0.000   0.000  -0.000  -0.000   0.000   0.000   0.000  -0.000   0.000  -0.000   0.000   0.000   0.000  -0.000   0.000   0.000


------------------------ aborting loop because EDIFF is reached ----------------------------------------


    CHARGE:  cpu time      0.0889: real time      0.0896
    FORLOC:  cpu time      0.0017: real time      0.0017
    FORNL :  cpu time      0.1851: real time      0.1867
    STRESS:  cpu time      0.1862: real time      0.1871
    FORCOR:  cpu time      0.0189: real time      0.0190
    FORHAR:  cpu time      0.0031: real time      0.0032
    MIXING:  cpu time      0.0006: real time      0.0006
    OFIELD:  cpu time      0.0000: real time      0.0000

 ---------------------------------------------------------------------------------------------

         DFTD3 V3.0 Rev 1        
 Edisp (eV)   -3.62929

 E6    (eV) :    -1.4322
 E8    (eV) :    -2.1971
 % E8        : 60.54
    FORVDW:  cpu time      0.0378: real time      0.0380

  FORCE on cell =-STRESS in cart. coord.  units (eV):
  Direction    XX          YY          ZZ          XY          YZ          ZX
  --------------------------------------------------------------------------------------
  Alpha Z   249.32957   249.32957   249.32957
  Ewald   53438.12459 53438.12459-60676.39192     0.00000     0.00000     0.00000
  Hartree 57137.43615 57137.43615-54795.58868    -0.00000    -0.00000    -0.00000
  E(xc)    -642.26299  -642.26299  -643.24470     0.00000     0.00000     0.00000
  Local  ************************114233.55479    -0.00000    -0.00000    -0.00000
  n-local  -209.25464  -222.55667  -216.13761     5.89039     0.00000     0.00000
  augment   944.70743   944.70743   949.75809    -0.00000     0.00000    -0.00000
  Kinetic   906.35372   884.22043   901.04963    -1.85680    -0.00000    -0.00000
  Fock        0.00000     0.00000     0.00000     0.00000     0.00000     0.00000
  vdW        -4.37315    -4.37315    -2.89784     0.00000     0.00000     0.00000
  -------------------------------------------------------------------------------------
  Total      -4.40705    -4.40705    -0.56866     0.00000     0.00000     0.00000
  in kB     -24.07247   -24.07247    -3.10616     0.00000     0.00000     0.00000
  external pressure =      -17.08 kB  Pullay stress =        0.00 kB


 VOLUME and BASIS-vectors are now :
 -----------------------------------------------------------------------------
  energy-cutoff  :      400.00
  volume of cell :      293.32
      direct lattice vectors                 reciprocal lattice vectors
     3.630000114  0.000000000  0.000000000     0.275482085  0.000000000  0.000000000
     0.000000000  3.630000114  0.000000000     0.000000000  0.275482085  0.000000000
     0.000000000  0.000000000 22.260000000     0.000000000  0.000000000  0.044923630

  length of vectors
     3.630000114  3.630000114 22.260000000     0.275482085  0.275482085  0.044923630


 FORCES acting on ions
    electron-ion (+dipol)            ewald-force                    non-local-force                 convergence-correction
 -----------------------------------------------------------------------------------------------
   -.549E-13 -.138E-11 0.392E+04   -.923E-07 -.923E-07 -.392E+04   -.662E-23 0.000E+00 -.308E+01   0.167E-10 0.167E-10 -.124E-01
   0.774E-06 0.774E-06 0.392E+04   0.923E-07 0.923E-07 -.392E+04   0.265E-22 0.529E-22 -.308E+01   0.113E-10 0.113E-10 -.124E-01
   -.634E-13 0.754E-06 0.201E+04   -.126E-06 0.126E-06 -.201E+04   -.132E-22 0.000E+00 -.119E+01   0.314E-09 -.130E-09 -.188E+00
   0.754E-06 0.312E-12 0.201E+04   0.126E-06 -.126E-06 -.201E+04   -.132E-22 0.000E+00 -.119E+01   -.130E-09 0.314E-09 -.188E+00
   -.382E-13 -.564E-13 0.111E+02   -.129E-06 -.129E-06 -.107E+02   0.265E-22 0.000E+00 0.313E+00   0.341E-09 0.341E-09 -.763E+00
   0.753E-06 0.753E-06 0.111E+02   0.129E-06 0.129E-06 -.107E+02   0.265E-22 -.529E-22 0.313E+00   -.260E-09 -.259E-09 -.763E+00
   -.479E-13 0.751E-06 -.200E+04   -.130E-06 0.130E-06 0.200E+04   -.529E-22 0.000E+00 0.132E+01   0.671E-10 -.193E-09 -.775E+00
   0.751E-06 0.223E-12 -.200E+04   0.130E-06 -.130E-06 0.200E+04   0.000E+00 0.529E-22 0.132E+01   -.193E-09 0.667E-10 -.775E+00
   -.595E-13 -.182E-11 -.394E+04   -.965E-07 -.965E-07 0.394E+04   -.265E-22 0.000E+00 0.359E+01   -.350E-09 -.350E-09 -.631E+00
   0.772E-06 0.772E-06 -.394E+04   0.965E-07 0.965E-07 0.394E+04   -.132E-22 0.000E+00 0.359E+01   -.194E-10 -.188E-10 -.631E+00
 -----------------------------------------------------------------------------------------------
   0.380E-05 0.380E-05 0.279E+01   -.649E-13 -.687E-13 -.227E-11   -.463E-22 0.529E-22 0.192E+01   -.201E-09 -.201E-09 -.474E+01
 
 
 POSITION                                       TOTAL-FORCE (eV/Angst)
 -----------------------------------------------------------------------------------
      0.00000      0.00000      0.00000        -0.000000     -0.000000      0.258290
      1.81500      1.81500      0.00000        -0.000000      0.000000      0.258290
      0.00000      1.81500      1.81500        -0.000000      0.000000     -0.261689
      1.81500      0.00000      1.81500        -0.000000      0.000000     -0.261689
      0.00000     -0.00000      3.58530        -0.000000     -0.000000     -0.007658
      1.81500      1.81500      3.58530         0.000000      0.000000     -0.007658
     -0.00000      1.81500      5.35787        -0.000000     -0.000000      0.001088
      1.81500     -0.00000      5.35787        -0.000000     -0.000000      0.001088
     -0.00000      0.00000      7.10070        -0.000000     -0.000000      0.009969
      1.81500      1.81500      7.10070         0.000000      0.000000      0.009969
 -----------------------------------------------------------------------------------
    total drift:                                0.000004      0.000004     -0.030004


--------------------------------------------------------------------------------------------------------



  FREE ENERGIE OF THE ION-ELECTRON SYSTEM (eV)
  ---------------------------------------------------
  free  energy   TOTEN  =       -37.99503764 eV

  energy  without entropy=      -37.96217827  energy(sigma->0) =      -37.98408451
 
 d Force = 0.2724721E-03[-0.963E-04, 0.641E-03]  d Energy = 0.7298158E-03-0.457E-03
 d Force =-0.1214439E+03[-0.122E+03,-0.121E+03]  d Ewald  =-0.1214439E+03 0.378E-04


--------------------------------------------------------------------------------------------------------


    POTLOK:  cpu time      0.0261: real time      0.0263


--------------------------------------------------------------------------------------------------------


 stress matrix after NEB project (eV)
     -4.40705      0.00000      0.00000
      0.00000     -4.40705      0.00000
      0.00000      0.00000     -0.56866
  FORCES: max atom, RMS     0.009969    0.005643
  FORCE total and by dimension    0.017843    0.009969
  Stress total and by dimension    6.258405    4.407055


--------------------------------------------------------------------------------------------------------


  
 reached required accuracy - stopping structural energy minimisation
     LOOP+:  cpu time      2.4673: real time      2.5101
    4ORBIT:  cpu time      0.0000: real time      0.0000

 total amount of memory used by VASP MPI-rank0    35203. kBytes
=======================================================================

   base      :      30000. kBytes
   nonl-proj :        634. kBytes
   fftplans  :        777. kBytes
   grid      :       1816. kBytes
   one-center:         62. kBytes
   wavefun   :       1914. kBytes
 
  
  
 General timing and accounting informations for this job:
 ========================================================
  
                  Total CPU time used (sec):       51.878
                            User time (sec):       50.574
                          System time (sec):        1.304
                         Elapsed time (sec):       53.413
  
                   Maximum memory used (kb):      230332.
                   Average memory used (kb):          N/A
  
                          Minor page faults:        82548
                          Major page faults:         6471
                 Voluntary context switches:         2234
