unknown system                          
           1
     3.630000    0.000000    0.000000
     0.000000    3.630000    0.000000
     0.000000    0.000000   22.260000
   Cu
    10
Direct configuration=     1
   0.00000000  0.00000000  0.00000000
   0.50000000  0.50000000  0.00000000
   0.00000000  0.50000000  0.08153639
   0.50000000  0.00000000  0.08153639
   0.00000000  0.00000000  0.16307278
   0.50000000  0.50000000  0.16307278
   0.00000000  0.50000000  0.24460917
   0.50000000  0.00000000  0.24460917
   0.00000000  0.00000000  0.32614556
   0.50000000  0.50000000  0.32614556
Direct configuration=     2
   0.00000000  0.00000000  0.00000000
   0.50000000  0.50000000  0.00000000
   0.00000000  0.50000000  0.08153639
   0.50000000  0.00000000  0.08153639
  -0.00000000 -0.00000000  0.16307754
   0.50000000  0.50000000  0.16307754
  -0.00000000  0.50000000  0.24476548
   0.50000000  0.00000000  0.24476548
  -0.00000000 -0.00000000  0.32555472
   0.50000000  0.50000000  0.32555472
Direct configuration=     3
   0.00000000  0.00000000  0.00000000
   0.50000000  0.50000000  0.00000000
   0.00000000  0.50000000  0.08153639
   0.50000000  0.00000000  0.08153639
  -0.00000000 -0.00000000  0.16308517
   0.50000000  0.50000000  0.16308517
  -0.00000000  0.50000000  0.24501570
   0.50000000  0.00000000  0.24501570
  -0.00000000 -0.00000000  0.32460889
   0.50000000  0.50000000  0.32460889
Direct configuration=     4
   0.00000000  0.00000000  0.00000000
   0.50000000  0.50000000  0.00000000
   0.00000000  0.50000000  0.08153639
   0.50000000  0.00000000  0.08153639
  -0.00000000 -0.00000000  0.16308807
   0.50000000  0.50000000  0.16308807
  -0.00000000  0.50000000  0.24511087
   0.50000000  0.00000000  0.24511087
  -0.00000000 -0.00000000  0.32424913
   0.50000000  0.50000000  0.32424913
Direct configuration=     5
   0.00000000  0.00000000  0.00000000
   0.50000000  0.50000000  0.00000000
   0.00000000  0.50000000  0.08153639
   0.50000000  0.00000000  0.08153639
  -0.00000000 -0.00000000  0.16309387
   0.50000000  0.50000000  0.16309387
  -0.00000000  0.50000000  0.24530122
   0.50000000  0.00000000  0.24530122
  -0.00000000 -0.00000000  0.32352962
   0.50000000  0.50000000  0.32352962
Direct configuration=     6
   0.00000000  0.00000000  0.00000000
   0.50000000  0.50000000  0.00000000
   0.00000000  0.50000000  0.08153639
   0.50000000  0.00000000  0.08153639
  -0.00000000 -0.00000000  0.16309003
   0.50000000  0.50000000  0.16309003
  -0.00000000  0.50000000  0.24517508
   0.50000000  0.00000000  0.24517508
  -0.00000000 -0.00000000  0.32400642
   0.50000000  0.50000000  0.32400642
Direct configuration=     7
   0.00000000  0.00000000  0.00000000
   0.50000000  0.50000000  0.00000000
   0.00000000  0.50000000  0.08153639
   0.50000000  0.00000000  0.08153639
  -0.00000000 -0.00000000  0.16321196
   0.50000000  0.50000000  0.16321196
  -0.00000000  0.50000000  0.24469303
   0.50000000  0.00000000  0.24469303
  -0.00000000  0.00000000  0.32345128
   0.50000000  0.50000000  0.32345128
Direct configuration=     8
   0.00000000  0.00000000  0.00000000
   0.50000000  0.50000000  0.00000000
   0.00000000  0.50000000  0.08153639
   0.50000000  0.00000000  0.08153639
  -0.00000000 -0.00000000  0.16340806
   0.50000000  0.50000000  0.16340806
  -0.00000000  0.50000000  0.24391779
   0.50000000  0.00000000  0.24391779
  -0.00000000  0.00000000  0.32255848
   0.50000000  0.50000000  0.32255848
Direct configuration=     9
   0.00000000  0.00000000  0.00000000
   0.50000000  0.50000000  0.00000000
   0.00000000  0.50000000  0.08153639
   0.50000000  0.00000000  0.08153639
  -0.00000000 -0.00000000  0.16380025
   0.50000000  0.50000000  0.16380025
  -0.00000000  0.50000000  0.24236732
   0.50000000 -0.00000000  0.24236732
  -0.00000000  0.00000000  0.32077288
   0.50000000  0.50000000  0.32077288
Direct configuration=    10
   0.00000000  0.00000000  0.00000000
   0.50000000  0.50000000  0.00000000
   0.00000000  0.50000000  0.08153639
   0.50000000  0.00000000  0.08153639
  -0.00000000 -0.00000000  0.16354167
   0.50000000  0.50000000  0.16354167
  -0.00000000  0.50000000  0.24338957
   0.50000000 -0.00000000  0.24338957
  -0.00000000  0.00000000  0.32195015
   0.50000000  0.50000000  0.32195015
Direct configuration=    11
   0.00000000  0.00000000  0.00000000
   0.50000000  0.50000000  0.00000000
   0.00000000  0.50000000  0.08153639
   0.50000000  0.00000000  0.08153639
  -0.00000000 -0.00000000  0.16302182
   0.50000000  0.50000000  0.16302182
  -0.00000000  0.50000000  0.24282406
   0.50000000 -0.00000000  0.24282406
  -0.00000000  0.00000000  0.32132875
   0.50000000  0.50000000  0.32132875
Direct configuration=    12
   0.00000000  0.00000000  0.00000000
   0.50000000  0.50000000  0.00000000
   0.00000000  0.50000000  0.08153639
   0.50000000  0.00000000  0.08153639
   0.00000000 -0.00000000  0.16146225
   0.50000000  0.50000000  0.16146225
  -0.00000000  0.50000000  0.24112752
   0.50000000 -0.00000000  0.24112752
  -0.00000000  0.00000000  0.31946454
   0.50000000  0.50000000  0.31946454
Direct configuration=    13
   0.00000000  0.00000000  0.00000000
   0.50000000  0.50000000  0.00000000
   0.00000000  0.50000000  0.08153639
   0.50000000  0.00000000  0.08153639
   0.00000000 -0.00000000  0.16106473
   0.50000000  0.50000000  0.16106473
  -0.00000000  0.50000000  0.24069509
   0.50000000 -0.00000000  0.24069509
  -0.00000000  0.00000000  0.31898938
   0.50000000  0.50000000  0.31898938
