  66  66   0   0
  0.2212521E+02  0.7260000E-09  0.7260000E-09  0.2770500E-08  0.5000000E-15
  1.000000000000000E-004
  CAR 
 unknown system                          
     13.38557561     -9.46690949  301      1.92319113      1.00000000
     -9.467  0.0000E+00  0.0000E+00  0.0000E+00  0.0000E+00
     -9.391  0.0000E+00  0.0000E+00  0.0000E+00  0.0000E+00
     -9.315  0.0000E+00  0.0000E+00  0.0000E+00  0.0000E+00
     -9.238  0.0000E+00  0.0000E+00  0.0000E+00  0.0000E+00
     -9.162  0.0000E+00  0.0000E+00  0.0000E+00  0.0000E+00
     -9.086 -0.1433E-30 -0.1433E-30 -0.1091E-31 -0.1091E-31
     -9.010 -0.5616E-28 -0.5616E-28 -0.4289E-29 -0.4289E-29
     -8.934 -0.1645E-25 -0.1645E-25 -0.1258E-26 -0.1258E-26
     -8.858 -0.3596E-23 -0.3596E-23 -0.2752E-24 -0.2752E-24
     -8.781 -0.5860E-21 -0.5860E-21 -0.4491E-22 -0.4491E-22
     -8.705 -0.7116E-19 -0.7116E-19 -0.5466E-20 -0.5466E-20
     -8.629 -0.6234E-17 -0.6234E-17 -0.4803E-18 -0.4803E-18
     -8.553 -0.4188E-15 -0.4188E-15 -0.3238E-16 -0.3238E-16
     -8.477 -0.2085E-13 -0.2085E-13 -0.1620E-14 -0.1620E-14
     -8.400 -0.7695E-12 -0.7695E-12 -0.6023E-13 -0.6023E-13
     -8.324 -0.2101E-10 -0.2101E-10 -0.1661E-11 -0.1661E-11
     -8.248 -0.4233E-09 -0.4233E-09 -0.3391E-10 -0.3391E-10
     -8.172 -0.6263E-08 -0.6263E-08 -0.5110E-09 -0.5110E-09
     -8.096 -0.6760E-07 -0.6760E-07 -0.5661E-08 -0.5661E-08
     -8.020 -0.5269E-06 -0.5269E-06 -0.4579E-07 -0.4579E-07
     -7.943 -0.2911E-05 -0.2911E-05 -0.2676E-06 -0.2676E-06
     -7.867 -0.1100E-04 -0.1100E-04 -0.1105E-05 -0.1105E-05
     -7.791 -0.2595E-04 -0.2595E-04 -0.3082E-05 -0.3082E-05
     -7.715 -0.2547E-04 -0.2547E-04 -0.5022E-05 -0.5022E-05
     -7.639  0.5063E-04  0.5063E-04 -0.1166E-05 -0.1166E-05
     -7.563  0.2346E-03  0.2346E-03  0.1670E-04  0.1670E-04
     -7.486  0.4165E-03  0.4165E-03  0.4843E-04  0.4843E-04
     -7.410  0.4423E-03  0.4423E-03  0.8212E-04  0.8212E-04
     -7.334  0.4520E-03  0.4520E-03  0.1166E-03  0.1166E-03
     -7.258  0.8487E-03  0.8487E-03  0.1812E-03  0.1812E-03
     -7.182  0.1630E-02  0.1630E-02  0.3054E-03  0.3054E-03
     -7.105  0.2152E-02  0.2152E-02  0.4693E-03  0.4693E-03
     -7.029  0.2114E-02  0.2114E-02  0.6303E-03  0.6303E-03
     -6.953  0.2311E-02  0.2311E-02  0.8063E-03  0.8063E-03
     -6.877  0.3596E-02  0.3596E-02  0.1080E-02  0.1080E-02
     -6.801  0.5421E-02  0.5421E-02  0.1493E-02  0.1493E-02
     -6.725  0.6288E-02  0.6288E-02  0.1972E-02  0.1972E-02
     -6.648  0.5584E-02  0.5584E-02  0.2398E-02  0.2398E-02
     -6.572  0.4128E-02  0.4128E-02  0.2712E-02  0.2712E-02
     -6.496  0.2869E-02  0.2869E-02  0.2931E-02  0.2931E-02
     -6.420  0.2085E-02  0.2085E-02  0.3089E-02  0.3089E-02
     -6.344  0.2034E-02  0.2034E-02  0.3244E-02  0.3244E-02
     -6.268  0.2925E-02  0.2925E-02  0.3467E-02  0.3467E-02
     -6.191  0.3940E-02  0.3940E-02  0.3767E-02  0.3767E-02
     -6.115  0.3903E-02  0.3903E-02  0.4065E-02  0.4065E-02
     -6.039  0.3150E-02  0.3150E-02  0.4305E-02  0.4305E-02
     -5.963  0.3215E-02  0.3215E-02  0.4549E-02  0.4549E-02
     -5.887  0.4519E-02  0.4519E-02  0.4894E-02  0.4894E-02
     -5.811  0.5793E-02  0.5793E-02  0.5335E-02  0.5335E-02
     -5.734  0.5919E-02  0.5919E-02  0.5786E-02  0.5786E-02
     -5.658  0.5076E-02  0.5076E-02  0.6173E-02  0.6173E-02
     -5.582  0.4214E-02  0.4214E-02  0.6494E-02  0.6494E-02
     -5.506  0.4299E-02  0.4299E-02  0.6821E-02  0.6821E-02
     -5.430  0.5421E-02  0.5421E-02  0.7234E-02  0.7234E-02
     -5.353  0.6165E-02  0.6165E-02  0.7704E-02  0.7704E-02
     -5.277  0.5075E-02  0.5075E-02  0.8090E-02  0.8090E-02
     -5.201  0.2778E-02  0.2778E-02  0.8302E-02  0.8302E-02
     -5.125  0.1340E-02  0.1340E-02  0.8404E-02  0.8404E-02
     -5.049  0.1720E-02  0.1720E-02  0.8535E-02  0.8535E-02
     -4.973  0.3006E-02  0.3006E-02  0.8764E-02  0.8764E-02
     -4.896  0.4092E-02  0.4092E-02  0.9076E-02  0.9076E-02
     -4.820  0.5193E-02  0.5193E-02  0.9471E-02  0.9471E-02
     -4.744  0.7252E-02  0.7252E-02  0.1002E-01  0.1002E-01
     -4.668  0.1011E-01  0.1011E-01  0.1079E-01  0.1079E-01
     -4.592  0.1213E-01  0.1213E-01  0.1172E-01  0.1172E-01
     -4.516  0.1199E-01  0.1199E-01  0.1263E-01  0.1263E-01
     -4.439  0.9876E-02  0.9876E-02  0.1338E-01  0.1338E-01
     -4.363  0.6920E-02  0.6920E-02  0.1391E-01  0.1391E-01
     -4.287  0.4456E-02  0.4456E-02  0.1425E-01  0.1425E-01
     -4.211  0.3614E-02  0.3614E-02  0.1453E-01  0.1453E-01
     -4.135  0.4667E-02  0.4667E-02  0.1488E-01  0.1488E-01
     -4.058  0.6530E-02  0.6530E-02  0.1538E-01  0.1538E-01
     -3.982  0.7886E-02  0.7886E-02  0.1598E-01  0.1598E-01
     -3.906  0.8877E-02  0.8877E-02  0.1666E-01  0.1666E-01
     -3.830  0.1029E-01  0.1029E-01  0.1744E-01  0.1744E-01
     -3.754  0.1198E-01  0.1198E-01  0.1835E-01  0.1835E-01
     -3.678  0.1365E-01  0.1365E-01  0.1939E-01  0.1939E-01
     -3.601  0.1551E-01  0.1551E-01  0.2057E-01  0.2057E-01
     -3.525  0.1699E-01  0.1699E-01  0.2187E-01  0.2187E-01
     -3.449  0.1707E-01  0.1707E-01  0.2317E-01  0.2317E-01
     -3.373  0.1576E-01  0.1576E-01  0.2437E-01  0.2437E-01
     -3.297  0.1412E-01  0.1412E-01  0.2544E-01  0.2544E-01
     -3.221  0.1409E-01  0.1409E-01  0.2652E-01  0.2652E-01
     -3.144  0.1844E-01  0.1844E-01  0.2792E-01  0.2792E-01
     -3.068  0.2852E-01  0.2852E-01  0.3010E-01  0.3010E-01
     -2.992  0.4075E-01  0.4075E-01  0.3320E-01  0.3320E-01
     -2.916  0.4772E-01  0.4772E-01  0.3683E-01  0.3683E-01
     -2.840  0.4592E-01  0.4592E-01  0.4033E-01  0.4033E-01
     -2.764  0.4084E-01  0.4084E-01  0.4344E-01  0.4344E-01
     -2.687  0.4078E-01  0.4078E-01  0.4655E-01  0.4655E-01
     -2.611  0.4718E-01  0.4718E-01  0.5014E-01  0.5014E-01
     -2.535  0.5550E-01  0.5550E-01  0.5437E-01  0.5437E-01
     -2.459  0.6435E-01  0.6435E-01  0.5927E-01  0.5927E-01
     -2.383  0.7715E-01  0.7715E-01  0.6515E-01  0.6515E-01
     -2.306  0.9287E-01  0.9287E-01  0.7223E-01  0.7223E-01
     -2.230  0.1015E+00  0.1015E+00  0.7995E-01  0.7995E-01
     -2.154  0.9461E-01  0.9461E-01  0.8716E-01  0.8716E-01
     -2.078  0.7811E-01  0.7811E-01  0.9311E-01  0.9311E-01
     -2.002  0.6656E-01  0.6656E-01  0.9818E-01  0.9818E-01
     -1.926  0.6780E-01  0.6780E-01  0.1033E+00  0.1033E+00
     -1.849  0.7770E-01  0.7770E-01  0.1093E+00  0.1093E+00
     -1.773  0.8771E-01  0.8771E-01  0.1159E+00  0.1159E+00
     -1.697  0.9262E-01  0.9262E-01  0.1230E+00  0.1230E+00
     -1.621  0.9304E-01  0.9304E-01  0.1301E+00  0.1301E+00
     -1.545  0.9387E-01  0.9387E-01  0.1372E+00  0.1372E+00
     -1.469  0.9998E-01  0.9998E-01  0.1449E+00  0.1449E+00
     -1.392  0.1118E+00  0.1118E+00  0.1534E+00  0.1534E+00
     -1.316  0.1246E+00  0.1246E+00  0.1629E+00  0.1629E+00
     -1.240  0.1333E+00  0.1333E+00  0.1730E+00  0.1730E+00
     -1.164  0.1377E+00  0.1377E+00  0.1835E+00  0.1835E+00
     -1.088  0.1406E+00  0.1406E+00  0.1942E+00  0.1942E+00
     -1.011  0.1410E+00  0.1410E+00  0.2050E+00  0.2050E+00
     -0.935  0.1358E+00  0.1358E+00  0.2153E+00  0.2153E+00
     -0.859  0.1270E+00  0.1270E+00  0.2250E+00  0.2250E+00
     -0.783  0.1196E+00  0.1196E+00  0.2341E+00  0.2341E+00
     -0.707  0.1166E+00  0.1166E+00  0.2430E+00  0.2430E+00
     -0.631  0.1205E+00  0.1205E+00  0.2522E+00  0.2522E+00
     -0.554  0.1312E+00  0.1312E+00  0.2622E+00  0.2622E+00
     -0.478  0.1424E+00  0.1424E+00  0.2730E+00  0.2730E+00
     -0.402  0.1465E+00  0.1465E+00  0.2842E+00  0.2842E+00
     -0.326  0.1444E+00  0.1444E+00  0.2952E+00  0.2952E+00
     -0.250  0.1422E+00  0.1422E+00  0.3060E+00  0.3060E+00
     -0.174  0.1425E+00  0.1425E+00  0.3169E+00  0.3169E+00
     -0.097  0.1442E+00  0.1442E+00  0.3278E+00  0.3278E+00
     -0.021  0.1500E+00  0.1500E+00  0.3393E+00  0.3393E+00
      0.055  0.1652E+00  0.1652E+00  0.3518E+00  0.3518E+00
      0.131  0.1875E+00  0.1875E+00  0.3661E+00  0.3661E+00
      0.207  0.2018E+00  0.2018E+00  0.3815E+00  0.3815E+00
      0.283  0.1917E+00  0.1917E+00  0.3961E+00  0.3961E+00
      0.360  0.1540E+00  0.1540E+00  0.4078E+00  0.4078E+00
      0.436  0.1024E+00  0.1024E+00  0.4156E+00  0.4156E+00
      0.512  0.5718E-01  0.5718E-01  0.4200E+00  0.4200E+00
      0.588  0.3028E-01  0.3028E-01  0.4223E+00  0.4223E+00
      0.664  0.1944E-01  0.1944E-01  0.4238E+00  0.4238E+00
      0.741  0.1667E-01  0.1667E-01  0.4250E+00  0.4250E+00
      0.817  0.1686E-01  0.1686E-01  0.4263E+00  0.4263E+00
      0.893  0.1778E-01  0.1778E-01  0.4277E+00  0.4277E+00
      0.969  0.1852E-01  0.1852E-01  0.4291E+00  0.4291E+00
      1.045  0.1919E-01  0.1919E-01  0.4306E+00  0.4306E+00
      1.121  0.1925E-01  0.1925E-01  0.4320E+00  0.4320E+00
      1.198  0.1716E-01  0.1716E-01  0.4333E+00  0.4333E+00
      1.274  0.1277E-01  0.1277E-01  0.4343E+00  0.4343E+00
      1.350  0.8099E-02  0.8099E-02  0.4349E+00  0.4349E+00
      1.426  0.4985E-02  0.4985E-02  0.4353E+00  0.4353E+00
      1.502  0.3625E-02  0.3625E-02  0.4356E+00  0.4356E+00
      1.578  0.3598E-02  0.3598E-02  0.4358E+00  0.4358E+00
      1.655  0.5361E-02  0.5361E-02  0.4363E+00  0.4363E+00
      1.731  0.9936E-02  0.9936E-02  0.4370E+00  0.4370E+00
      1.807  0.1709E-01  0.1709E-01  0.4383E+00  0.4383E+00
      1.883  0.2417E-01  0.2417E-01  0.4402E+00  0.4402E+00
      1.959  0.2728E-01  0.2728E-01  0.4422E+00  0.4422E+00
      2.036  0.2416E-01  0.2416E-01  0.4441E+00  0.4441E+00
      2.112  0.1636E-01  0.1636E-01  0.4453E+00  0.4453E+00
      2.188  0.8348E-02  0.8348E-02  0.4460E+00  0.4460E+00
      2.264  0.4083E-02  0.4083E-02  0.4463E+00  0.4463E+00
      2.340  0.4266E-02  0.4266E-02  0.4466E+00  0.4466E+00
      2.416  0.6516E-02  0.6516E-02  0.4471E+00  0.4471E+00
      2.493  0.8378E-02  0.8378E-02  0.4477E+00  0.4477E+00
      2.569  0.9655E-02  0.9655E-02  0.4485E+00  0.4485E+00
      2.645  0.1134E-01  0.1134E-01  0.4493E+00  0.4493E+00
      2.721  0.1359E-01  0.1359E-01  0.4504E+00  0.4504E+00
      2.797  0.1520E-01  0.1520E-01  0.4515E+00  0.4515E+00
      2.873  0.1443E-01  0.1443E-01  0.4526E+00  0.4526E+00
      2.950  0.1116E-01  0.1116E-01  0.4535E+00  0.4535E+00
      3.026  0.8498E-02  0.8498E-02  0.4541E+00  0.4541E+00
      3.102  0.9936E-02  0.9936E-02  0.4549E+00  0.4549E+00
      3.178  0.1478E-01  0.1478E-01  0.4560E+00  0.4560E+00
      3.254  0.1864E-01  0.1864E-01  0.4574E+00  0.4574E+00
      3.330  0.1833E-01  0.1833E-01  0.4588E+00  0.4588E+00
      3.407  0.1454E-01  0.1454E-01  0.4599E+00  0.4599E+00
      3.483  0.9936E-02  0.9936E-02  0.4607E+00  0.4607E+00
      3.559  0.6410E-02  0.6410E-02  0.4612E+00  0.4612E+00
      3.635  0.5105E-02  0.5105E-02  0.4616E+00  0.4616E+00
      3.711  0.6801E-02  0.6801E-02  0.4621E+00  0.4621E+00
      3.788  0.1029E-01  0.1029E-01  0.4629E+00  0.4629E+00
      3.864  0.1247E-01  0.1247E-01  0.4638E+00  0.4638E+00
      3.940  0.1167E-01  0.1167E-01  0.4647E+00  0.4647E+00
      4.016  0.9172E-02  0.9172E-02  0.4654E+00  0.4654E+00
      4.092  0.7389E-02  0.7389E-02  0.4660E+00  0.4660E+00
      4.168  0.7617E-02  0.7617E-02  0.4665E+00  0.4665E+00
      4.245  0.8870E-02  0.8870E-02  0.4672E+00  0.4672E+00
      4.321  0.9126E-02  0.9126E-02  0.4679E+00  0.4679E+00
      4.397  0.8251E-02  0.8251E-02  0.4685E+00  0.4685E+00
      4.473  0.7770E-02  0.7770E-02  0.4691E+00  0.4691E+00
      4.549  0.8356E-02  0.8356E-02  0.4698E+00  0.4698E+00
      4.625  0.9851E-02  0.9851E-02  0.4705E+00  0.4705E+00
      4.702  0.1206E-01  0.1206E-01  0.4714E+00  0.4714E+00
      4.778  0.1384E-01  0.1384E-01  0.4725E+00  0.4725E+00
      4.854  0.1344E-01  0.1344E-01  0.4735E+00  0.4735E+00
      4.930  0.1093E-01  0.1093E-01  0.4743E+00  0.4743E+00
      5.006  0.8843E-02  0.8843E-02  0.4750E+00  0.4750E+00
      5.083  0.9165E-02  0.9165E-02  0.4757E+00  0.4757E+00
      5.159  0.1091E-01  0.1091E-01  0.4766E+00  0.4766E+00
      5.235  0.1157E-01  0.1157E-01  0.4774E+00  0.4774E+00
      5.311  0.1052E-01  0.1052E-01  0.4782E+00  0.4782E+00
      5.387  0.9848E-02  0.9848E-02  0.4790E+00  0.4790E+00
      5.463  0.1165E-01  0.1165E-01  0.4799E+00  0.4799E+00
      5.540  0.1457E-01  0.1457E-01  0.4810E+00  0.4810E+00
      5.616  0.1453E-01  0.1453E-01  0.4821E+00  0.4821E+00
      5.692  0.1016E-01  0.1016E-01  0.4829E+00  0.4829E+00
      5.768  0.5446E-02  0.5445E-02  0.4833E+00  0.4833E+00
      5.844  0.5222E-02  0.5221E-02  0.4837E+00  0.4837E+00
      5.920  0.9593E-02  0.9593E-02  0.4844E+00  0.4844E+00
      5.997  0.1413E-01  0.1413E-01  0.4855E+00  0.4855E+00
      6.073  0.1498E-01  0.1498E-01  0.4866E+00  0.4866E+00
      6.149  0.1255E-01  0.1255E-01  0.4876E+00  0.4876E+00
      6.225  0.1006E-01  0.1006E-01  0.4883E+00  0.4883E+00
      6.301  0.1031E-01  0.1031E-01  0.4891E+00  0.4891E+00
      6.377  0.1379E-01  0.1379E-01  0.4902E+00  0.4902E+00
      6.454  0.1833E-01  0.1833E-01  0.4916E+00  0.4916E+00
      6.530  0.2071E-01  0.2071E-01  0.4932E+00  0.4932E+00
      6.606  0.1959E-01  0.1959E-01  0.4946E+00  0.4946E+00
      6.682  0.1665E-01  0.1665E-01  0.4959E+00  0.4959E+00
      6.758  0.1469E-01  0.1469E-01  0.4970E+00  0.4970E+00
      6.835  0.1480E-01  0.1480E-01  0.4982E+00  0.4982E+00
      6.911  0.1538E-01  0.1538E-01  0.4993E+00  0.4993E+00
      6.987  0.1432E-01  0.1432E-01  0.5004E+00  0.5004E+00
      7.063  0.1180E-01  0.1180E-01  0.5013E+00  0.5013E+00
      7.139  0.9849E-02  0.9849E-02  0.5021E+00  0.5021E+00
      7.215  0.9717E-02  0.9716E-02  0.5028E+00  0.5028E+00
      7.292  0.1094E-01  0.1094E-01  0.5036E+00  0.5036E+00
      7.368  0.1228E-01  0.1228E-01  0.5046E+00  0.5046E+00
      7.444  0.1303E-01  0.1302E-01  0.5056E+00  0.5056E+00
      7.520  0.1362E-01  0.1362E-01  0.5066E+00  0.5066E+00
      7.596  0.1484E-01  0.1484E-01  0.5077E+00  0.5077E+00
      7.672  0.1686E-01  0.1686E-01  0.5090E+00  0.5090E+00
      7.749  0.1914E-01  0.1914E-01  0.5105E+00  0.5105E+00
      7.825  0.2107E-01  0.2107E-01  0.5121E+00  0.5121E+00
      7.901  0.2210E-01  0.2210E-01  0.5138E+00  0.5138E+00
      7.977  0.2120E-01  0.2120E-01  0.5154E+00  0.5154E+00
      8.053  0.1753E-01  0.1753E-01  0.5167E+00  0.5167E+00
      8.130  0.1217E-01  0.1217E-01  0.5177E+00  0.5177E+00
      8.206  0.8576E-02  0.8577E-02  0.5183E+00  0.5183E+00
      8.282  0.1005E-01  0.1005E-01  0.5191E+00  0.5191E+00
      8.358  0.1588E-01  0.1588E-01  0.5203E+00  0.5203E+00
      8.434  0.2075E-01  0.2075E-01  0.5219E+00  0.5219E+00
      8.510  0.2010E-01  0.2010E-01  0.5234E+00  0.5234E+00
      8.587  0.1541E-01  0.1541E-01  0.5246E+00  0.5246E+00
      8.663  0.1173E-01  0.1173E-01  0.5255E+00  0.5255E+00
      8.739  0.1129E-01  0.1129E-01  0.5263E+00  0.5263E+00
      8.815  0.1272E-01  0.1272E-01  0.5273E+00  0.5273E+00
      8.891  0.1499E-01  0.1499E-01  0.5284E+00  0.5284E+00
      8.967  0.1822E-01  0.1822E-01  0.5298E+00  0.5298E+00
      9.044  0.2153E-01  0.2153E-01  0.5315E+00  0.5315E+00
      9.120  0.2308E-01  0.2308E-01  0.5332E+00  0.5332E+00
      9.196  0.2228E-01  0.2228E-01  0.5349E+00  0.5349E+00
      9.272  0.2046E-01  0.2046E-01  0.5365E+00  0.5365E+00
      9.348  0.1906E-01  0.1906E-01  0.5379E+00  0.5379E+00
      9.424  0.1835E-01  0.1835E-01  0.5393E+00  0.5393E+00
      9.501  0.1800E-01  0.1801E-01  0.5407E+00  0.5407E+00
      9.577  0.1765E-01  0.1766E-01  0.5420E+00  0.5420E+00
      9.653  0.1677E-01  0.1677E-01  0.5433E+00  0.5433E+00
      9.729  0.1542E-01  0.1541E-01  0.5445E+00  0.5445E+00
      9.805  0.1462E-01  0.1462E-01  0.5456E+00  0.5456E+00
      9.882  0.1500E-01  0.1500E-01  0.5467E+00  0.5467E+00
      9.958  0.1567E-01  0.1567E-01  0.5479E+00  0.5479E+00
     10.034  0.1540E-01  0.1540E-01  0.5491E+00  0.5491E+00
     10.110  0.1430E-01  0.1430E-01  0.5502E+00  0.5502E+00
     10.186  0.1411E-01  0.1411E-01  0.5513E+00  0.5513E+00
     10.262  0.1676E-01  0.1676E-01  0.5526E+00  0.5526E+00
     10.339  0.2226E-01  0.2226E-01  0.5542E+00  0.5542E+00
     10.415  0.2776E-01  0.2776E-01  0.5564E+00  0.5564E+00
     10.491  0.2929E-01  0.2929E-01  0.5586E+00  0.5586E+00
     10.567  0.2520E-01  0.2520E-01  0.5605E+00  0.5605E+00
     10.643  0.1796E-01  0.1796E-01  0.5619E+00  0.5619E+00
     10.719  0.1184E-01  0.1184E-01  0.5628E+00  0.5628E+00
     10.796  0.9233E-02  0.9234E-02  0.5635E+00  0.5635E+00
     10.872  0.1001E-01  0.1001E-01  0.5642E+00  0.5642E+00
     10.948  0.1280E-01  0.1280E-01  0.5652E+00  0.5652E+00
     11.024  0.1524E-01  0.1524E-01  0.5664E+00  0.5664E+00
     11.100  0.1472E-01  0.1472E-01  0.5675E+00  0.5675E+00
     11.177  0.1102E-01  0.1102E-01  0.5683E+00  0.5683E+00
     11.253  0.6999E-02  0.7000E-02  0.5689E+00  0.5689E+00
     11.329  0.5062E-02  0.5062E-02  0.5693E+00  0.5693E+00
     11.405  0.4562E-02  0.4562E-02  0.5696E+00  0.5696E+00
     11.481  0.3567E-02  0.3567E-02  0.5699E+00  0.5699E+00
     11.557  0.1775E-02  0.1775E-02  0.5700E+00  0.5700E+00
     11.634  0.3079E-03  0.3080E-03  0.5700E+00  0.5700E+00
     11.710 -0.2350E-03 -0.2350E-03  0.5700E+00  0.5700E+00
     11.786 -0.2097E-03 -0.2097E-03  0.5700E+00  0.5700E+00
     11.862 -0.8581E-04 -0.8582E-04  0.5700E+00  0.5700E+00
     11.938 -0.2228E-04 -0.2228E-04  0.5700E+00  0.5700E+00
     12.014 -0.3978E-05 -0.3979E-05  0.5700E+00  0.5700E+00
     12.091 -0.5046E-06 -0.5048E-06  0.5700E+00  0.5700E+00
     12.167 -0.4628E-07 -0.4629E-07  0.5700E+00  0.5700E+00
     12.243 -0.3098E-08 -0.3099E-08  0.5700E+00  0.5700E+00
     12.319 -0.1524E-09 -0.1525E-09  0.5700E+00  0.5700E+00
     12.395 -0.5531E-11 -0.5533E-11  0.5700E+00  0.5700E+00
     12.471 -0.1485E-12 -0.1486E-12  0.5700E+00  0.5700E+00
     12.548 -0.2959E-14 -0.2959E-14  0.5700E+00  0.5700E+00
     12.624 -0.4534E-16 -0.4534E-16  0.5700E+00  0.5700E+00
     12.700  0.0000E+00  0.0000E+00  0.5700E+00  0.5700E+00
     12.776  0.0000E+00  0.0000E+00  0.5700E+00  0.5700E+00
     12.852  0.0000E+00  0.0000E+00  0.5700E+00  0.5700E+00
     12.929  0.0000E+00  0.0000E+00  0.5700E+00  0.5700E+00
     13.005  0.0000E+00  0.0000E+00  0.5700E+00  0.5700E+00
     13.081  0.0000E+00  0.0000E+00  0.5700E+00  0.5700E+00
     13.157  0.0000E+00  0.0000E+00  0.5700E+00  0.5700E+00
     13.233  0.0000E+00  0.0000E+00  0.5700E+00  0.5700E+00
     13.309  0.0000E+00  0.0000E+00  0.5700E+00  0.5700E+00
     13.386  0.0000E+00  0.0000E+00  0.5700E+00  0.5700E+00
