       N       E                     dE             d eps       ncg     rms          rms(c)
DAV:   1     0.685378185010E+04    0.68538E+04   -0.25039E+05  7296   0.190E+03
DAV:   2     0.963404413025E+03   -0.58904E+04   -0.56376E+04  7296   0.448E+02
DAV:   3    -0.179498925845E+03   -0.11429E+04   -0.10350E+04  7296   0.230E+02
DAV:   4    -0.271566232731E+03   -0.92067E+02   -0.87897E+02  8120   0.913E+01
DAV:   5    -0.273941827115E+03   -0.23756E+01   -0.23649E+01  8200   0.147E+01    0.746E+01
DAV:   6    -0.223386463423E+03    0.50555E+02   -0.62800E+02  7992   0.123E+02    0.376E+01
DAV:   7    -0.196864469313E+03    0.26522E+02   -0.14501E+02  7968   0.792E+01    0.198E+01
DAV:   8    -0.197626007403E+03   -0.76154E+00   -0.45349E+01  8560   0.956E+01    0.216E+01
DAV:   9    -0.194527065164E+03    0.30989E+01   -0.16342E+01  9864   0.643E+01    0.175E+01
DAV:  10    -0.193323490418E+03    0.12036E+01   -0.13129E+01 10808   0.550E+01    0.155E+01
DAV:  11    -0.194844645369E+03   -0.15212E+01   -0.83978E+00 11992   0.432E+01    0.136E+01
DAV:  12    -0.201311364157E+03   -0.64667E+01   -0.15925E+01  8304   0.352E+01    0.123E+01
DAV:  13    -0.204263527849E+03   -0.29522E+01   -0.49889E+00  8848   0.164E+01    0.934E+00
DAV:  14    -0.211047915387E+03   -0.67844E+01   -0.10607E+01  8448   0.299E+01    0.495E+00
DAV:  15    -0.216276899044E+03   -0.52290E+01   -0.49775E+00  9352   0.193E+01    0.500E+00
DAV:  16    -0.223147959743E+03   -0.68711E+01   -0.73603E+00  8544   0.141E+01    0.277E+00
DAV:  17    -0.225231962239E+03   -0.20840E+01   -0.18542E+00  8768   0.591E+00    0.214E+00
DAV:  18    -0.226314198574E+03   -0.10822E+01   -0.67622E-01  7912   0.394E+00    0.185E+00
DAV:  19    -0.228256358296E+03   -0.19422E+01   -0.10194E+00  9488   0.467E+00    0.159E+00
DAV:  20    -0.229688750717E+03   -0.14324E+01   -0.62058E-01  8624   0.378E+00    0.146E+00
DAV:  21    -0.231220721972E+03   -0.15320E+01   -0.72805E-01  9976   0.337E+00    0.124E+00
DAV:  22    -0.232033926245E+03   -0.81320E+00   -0.30062E-01  9824   0.310E+00    0.966E-01
DAV:  23    -0.232765637625E+03   -0.73171E+00   -0.29233E-01  9312   0.344E+00    0.931E-01
DAV:  24    -0.233209106257E+03   -0.44347E+00   -0.16152E-01  9032   0.286E+00    0.586E-01
DAV:  25    -0.233461860377E+03   -0.25275E+00   -0.44669E-02  8880   0.168E+00    0.349E-01
DAV:  26    -0.233728835393E+03   -0.26698E+00   -0.22190E-02  9160   0.939E-01    0.226E-01
DAV:  27    -0.233990316542E+03   -0.26148E+00   -0.11190E-02  9896   0.875E-01    0.207E-01
DAV:  28    -0.234090992797E+03   -0.10068E+00   -0.37935E-03 10072   0.438E-01    0.945E-02
DAV:  29    -0.234154660340E+03   -0.63668E-01   -0.13296E-03  7456   0.346E-01    0.101E-01
DAV:  30    -0.234175244629E+03   -0.20584E-01   -0.78107E-04  6600   0.287E-01    0.624E-02
DAV:  31    -0.234179376725E+03   -0.41321E-02   -0.27959E-04  5072   0.141E-01    0.354E-02
DAV:  32    -0.234180386571E+03   -0.10098E-02   -0.16839E-04  4936   0.868E-02    0.296E-02
DAV:  33    -0.234180821130E+03   -0.43456E-03   -0.11330E-04  4920   0.978E-02    0.242E-02
DAV:  34    -0.234181352486E+03   -0.53136E-03   -0.85260E-05  4832   0.536E-02    0.170E-02
DAV:  35    -0.234181818666E+03   -0.46618E-03   -0.63827E-05  4800   0.500E-02    0.173E-02
DAV:  36    -0.234182389741E+03   -0.57108E-03   -0.47483E-05  4784   0.543E-02    0.144E-02
DAV:  37    -0.234183060264E+03   -0.67052E-03   -0.40941E-05  4864   0.332E-02    0.833E-03
DAV:  38    -0.234183347466E+03   -0.28720E-03   -0.16394E-05  4856   0.246E-02    0.585E-03
DAV:  39    -0.234183432143E+03   -0.84677E-04   -0.10767E-05  4712   0.216E-02
   1 F= -.26064771E+03 E0= -.26058493E+03  d E =-.260648E+03  mag=    -0.0000
       N       E                     dE             d eps       ncg     rms          rms(c)
DAV:   1    -0.233306361317E+03    0.87699E+00   -0.62342E+02  8160   0.411E+01    0.259E+00
DAV:   2    -0.234967554411E+03   -0.16612E+01   -0.17301E+01 10608   0.154E+01    0.294E+00
DAV:   3    -0.235005968689E+03   -0.38414E-01   -0.18227E+00  7984   0.114E+01    0.159E+00
DAV:   4    -0.235006692773E+03   -0.72408E-03   -0.18334E-01  8528   0.529E+00    0.128E+00
DAV:   5    -0.235054081488E+03   -0.47389E-01   -0.12853E-01  8888   0.907E+00    0.151E+00
DAV:   6    -0.235026090404E+03    0.27991E-01   -0.15524E-01  9368   0.969E+00    0.116E+00
DAV:   7    -0.234986812847E+03    0.39278E-01   -0.67772E-02 12752   0.611E+00    0.267E-01
DAV:   8    -0.234987813487E+03   -0.10006E-02   -0.33294E-02  9960   0.170E+00    0.208E-01
DAV:   9    -0.234988584173E+03   -0.77069E-03   -0.15805E-02  7936   0.986E-01    0.124E-01
DAV:  10    -0.234988684841E+03   -0.10067E-03   -0.42445E-03  7536   0.524E-01    0.663E-02
DAV:  11    -0.234988761367E+03   -0.76526E-04   -0.14476E-03  7576   0.261E-01
   2 F= -.26150007E+03 E0= -.26143337E+03  d E =-.852364E+00  mag=     0.0001
       N       E                     dE             d eps       ncg     rms          rms(c)
DAV:   1    -0.234984491648E+03    0.41932E-02   -0.75047E+00  7504   0.381E+00    0.272E-01
DAV:   2    -0.234999872844E+03   -0.15381E-01   -0.16394E-01 10600   0.121E+00    0.291E-01
DAV:   3    -0.234999677316E+03    0.19553E-03   -0.93339E-03  8000   0.105E+00    0.204E-01
DAV:   4    -0.235000057828E+03   -0.38051E-03   -0.22999E-03  8264   0.107E+00    0.202E-01
DAV:   5    -0.234999368635E+03    0.68919E-03   -0.16891E-03  6616   0.106E+00    0.127E-01
DAV:   6    -0.234999212867E+03    0.15577E-03   -0.10077E-03  6464   0.607E-01
   3 F= -.26150316E+03 E0= -.26143680E+03  d E =-.855451E+00  mag=     0.0001
       N       E                     dE             d eps       ncg     rms          rms(c)
DAV:   1    -0.234995137987E+03    0.42306E-02   -0.13821E+00  7680   0.169E+00    0.110E-01
DAV:   2    -0.234998074007E+03   -0.29360E-02   -0.27074E-02 11248   0.854E-01    0.154E-01
DAV:   3    -0.234997865065E+03    0.20894E-03   -0.32500E-03  8136   0.907E-01    0.109E-01
DAV:   4    -0.234997799693E+03    0.65372E-04   -0.10727E-03  7320   0.464E-01
   4 F= -.26150487E+03 E0= -.26143846E+03  d E =-.857167E+00  mag=     0.0001
       N       E                     dE             d eps       ncg     rms          rms(c)
DAV:   1    -0.235043827280E+03   -0.45962E-01   -0.33583E+01  7840   0.882E+00    0.625E-01
DAV:   2    -0.235111348594E+03   -0.67521E-01   -0.71963E-01 11000   0.379E+00    0.769E-01
DAV:   3    -0.235109734088E+03    0.16145E-02   -0.49370E-02  8376   0.343E+00    0.512E-01
DAV:   4    -0.235110361068E+03   -0.62698E-03   -0.22263E-02  8328   0.331E+00    0.475E-01
DAV:   5    -0.235106833361E+03    0.35277E-02   -0.11370E-02 11312   0.224E+00    0.317E-01
DAV:   6    -0.235106550483E+03    0.28288E-03   -0.81856E-03 10784   0.197E+00    0.272E-01
DAV:   7    -0.235105162782E+03    0.13877E-02   -0.59402E-03  8904   0.133E+00    0.712E-02
DAV:   8    -0.235105366441E+03   -0.20366E-03   -0.35486E-03  7760   0.416E-01    0.528E-02
DAV:   9    -0.235105448809E+03   -0.82368E-04   -0.14087E-03  7464   0.255E-01
   5 F= -.26163534E+03 E0= -.26156992E+03  d E =-.130471E+00  mag=     0.0000
       N       E                     dE             d eps       ncg     rms          rms(c)
DAV:   1    -0.235082288687E+03    0.23078E-01   -0.13414E+01  7784   0.556E+00    0.361E-01
DAV:   2    -0.235108118032E+03   -0.25829E-01   -0.26882E-01 11104   0.233E+00    0.455E-01
DAV:   3    -0.235108082073E+03    0.35959E-04   -0.22101E-02  8464   0.226E+00    0.312E-01
DAV:   4    -0.235108021260E+03    0.60813E-04   -0.88208E-03  8216   0.194E+00    0.280E-01
DAV:   5    -0.235107064878E+03    0.95638E-03   -0.41402E-03  9760   0.131E+00    0.199E-01
DAV:   6    -0.235106860580E+03    0.20430E-03   -0.32304E-03 10312   0.111E+00    0.160E-01
DAV:   7    -0.235106480196E+03    0.38038E-03   -0.23255E-03  8216   0.716E-01    0.382E-02
DAV:   8    -0.235106577610E+03   -0.97414E-04   -0.12839E-03  7352   0.192E-01
   6 F= -.26165900E+03 E0= -.26159438E+03  d E =-.154122E+00  mag=     0.0000
       N       E                     dE             d eps       ncg     rms          rms(c)
DAV:   1    -0.235141281645E+03   -0.34801E-01   -0.32118E+01  7768   0.862E+00    0.465E-01
DAV:   2    -0.235208915027E+03   -0.67633E-01   -0.68777E-01 10840   0.337E+00    0.667E-01
DAV:   3    -0.235207077022E+03    0.18380E-02   -0.36071E-02  8296   0.274E+00    0.431E-01
DAV:   4    -0.235206998745E+03    0.78277E-04   -0.12267E-02  8272   0.218E+00    0.401E-01
DAV:   5    -0.235205669379E+03    0.13294E-02   -0.60457E-03  9976   0.145E+00    0.327E-01
DAV:   6    -0.235204874690E+03    0.79469E-03   -0.52377E-03 10280   0.138E+00    0.264E-01
DAV:   7    -0.235203827779E+03    0.10469E-02   -0.54318E-03 10504   0.103E+00    0.682E-02
DAV:   8    -0.235203925266E+03   -0.97487E-04   -0.21490E-03  7992   0.346E-01    0.473E-02
DAV:   9    -0.235203969264E+03   -0.43998E-04   -0.91688E-04  7024   0.212E-01
   7 F= -.26176773E+03 E0= -.26170284E+03  d E =-.108730E+00  mag=     0.0000
       N       E                     dE             d eps       ncg     rms          rms(c)
DAV:   1    -0.235080239979E+03    0.12369E+00   -0.78314E+01  7760   0.135E+01    0.747E-01
DAV:   2    -0.235252564078E+03   -0.17232E+00   -0.17401E+00 10944   0.576E+00    0.108E+00
DAV:   3    -0.235244132321E+03    0.84318E-02   -0.82339E-02  8368   0.442E+00    0.643E-01
DAV:   4    -0.235244870138E+03   -0.73782E-03   -0.29040E-02  8240   0.327E+00    0.625E-01
DAV:   5    -0.235241740649E+03    0.31295E-02   -0.15985E-02  8944   0.230E+00    0.509E-01
DAV:   6    -0.235239617550E+03    0.21231E-02   -0.12605E-02  9472   0.204E+00    0.416E-01
DAV:   7    -0.235237272667E+03    0.23449E-02   -0.15486E-02 10800   0.142E+00    0.746E-02
DAV:   8    -0.235237557114E+03   -0.28445E-03   -0.46646E-03  9176   0.464E-01    0.695E-02
DAV:   9    -0.235237658777E+03   -0.10166E-03   -0.18432E-03  7704   0.275E-01
   8 F= -.26183374E+03 E0= -.26176862E+03  d E =-.174746E+00  mag=     0.0000
       N       E                     dE             d eps       ncg     rms          rms(c)
DAV:   1    -0.235220584050E+03    0.16973E-01   -0.35884E+01  7784   0.919E+00    0.490E-01
DAV:   2    -0.235287671909E+03   -0.67088E-01   -0.67025E-01 11376   0.383E+00    0.700E-01
DAV:   3    -0.235285699648E+03    0.19723E-02   -0.49525E-02  8640   0.367E+00    0.469E-01
DAV:   4    -0.235284210903E+03    0.14887E-02   -0.16353E-02  8200   0.252E+00    0.392E-01
DAV:   5    -0.235282967145E+03    0.12438E-02   -0.85500E-03  9432   0.139E+00    0.314E-01
DAV:   6    -0.235282082314E+03    0.88483E-03   -0.76732E-03  9336   0.116E+00    0.243E-01
DAV:   7    -0.235281444776E+03    0.63754E-03   -0.66451E-03  8768   0.950E-01    0.541E-02
DAV:   8    -0.235281650651E+03   -0.20588E-03   -0.23803E-03  9272   0.284E-01    0.544E-02
DAV:   9    -0.235281654896E+03   -0.42457E-05   -0.63687E-04  6512   0.218E-01
   9 F= -.26191538E+03 E0= -.26185022E+03  d E =-.816423E-01  mag=     0.0000
       N       E                     dE             d eps       ncg     rms          rms(c)
DAV:   1    -0.235229007790E+03    0.52643E-01   -0.29289E+01  7696   0.830E+00    0.446E-01
DAV:   2    -0.235283423509E+03   -0.54416E-01   -0.54614E-01 11248   0.336E+00    0.620E-01
DAV:   3    -0.235282202815E+03    0.12207E-02   -0.41062E-02  8528   0.325E+00    0.424E-01
DAV:   4    -0.235281089073E+03    0.11137E-02   -0.14184E-02  8160   0.228E+00    0.352E-01
DAV:   5    -0.235280024133E+03    0.10649E-02   -0.65917E-03  9752   0.131E+00    0.281E-01
DAV:   6    -0.235279353857E+03    0.67028E-03   -0.61148E-03  9896   0.109E+00    0.217E-01
DAV:   7    -0.235278831530E+03    0.52233E-03   -0.49986E-03  8776   0.875E-01    0.519E-02
DAV:   8    -0.235278982098E+03   -0.15057E-03   -0.19049E-03  8032   0.262E-01
  10 F= -.26194839E+03 E0= -.26188333E+03  d E =-.114648E+00  mag=     0.0000
       N       E                     dE             d eps       ncg     rms          rms(c)
DAV:   1    -0.235223398639E+03    0.55433E-01   -0.48493E+01  7824   0.108E+01    0.502E-01
DAV:   2    -0.235315311693E+03   -0.91913E-01   -0.93099E-01 11032   0.372E+00    0.709E-01
DAV:   3    -0.235313948182E+03    0.13635E-02   -0.50710E-02  8208   0.335E+00    0.493E-01
DAV:   4    -0.235312964320E+03    0.98386E-03   -0.16656E-02  8536   0.233E+00    0.436E-01
DAV:   5    -0.235311761062E+03    0.12033E-02   -0.78028E-03 10296   0.152E+00    0.372E-01
DAV:   6    -0.235309661944E+03    0.20991E-02   -0.88213E-03 12288   0.115E+00    0.225E-01
DAV:   7    -0.235308963043E+03    0.69890E-03   -0.51682E-03  8832   0.107E+00    0.860E-02
DAV:   8    -0.235309096287E+03   -0.13324E-03   -0.25093E-03  7632   0.348E-01    0.589E-02
DAV:   9    -0.235309081140E+03    0.15147E-04   -0.63880E-04  6432   0.249E-01
  11 F= -.26201969E+03 E0= -.26195334E+03  d E =-.713033E-01  mag=     0.0000
       N       E                     dE             d eps       ncg     rms          rms(c)
DAV:   1    -0.235229369277E+03    0.79727E-01   -0.35458E+01  7832   0.922E+00    0.417E-01
DAV:   2    -0.235296027991E+03   -0.66659E-01   -0.66749E-01 11136   0.331E+00    0.617E-01
DAV:   3    -0.235294807653E+03    0.12203E-02   -0.39683E-02  8192   0.297E+00    0.416E-01
DAV:   4    -0.235294186088E+03    0.62157E-03   -0.12671E-02  8416   0.197E+00    0.369E-01
DAV:   5    -0.235293400518E+03    0.78557E-03   -0.61330E-03  9552   0.125E+00    0.317E-01
DAV:   6    -0.235291883919E+03    0.15166E-02   -0.65527E-03 11152   0.947E-01    0.198E-01
DAV:   7    -0.235291406185E+03    0.47773E-03   -0.43004E-03  8816   0.896E-01    0.600E-02
DAV:   8    -0.235291523991E+03   -0.11781E-03   -0.17079E-03  7496   0.262E-01
  12 F= -.26203916E+03 E0= -.26197184E+03  d E =-.907682E-01  mag=     0.0000
       N       E                     dE             d eps       ncg     rms          rms(c)
DAV:   1    -0.235243765989E+03    0.47640E-01   -0.21862E+01  8024   0.723E+00    0.336E-01
DAV:   2    -0.235283741469E+03   -0.39975E-01   -0.40415E-01 10976   0.251E+00    0.461E-01
DAV:   3    -0.235282986570E+03    0.75490E-03   -0.25112E-02  8016   0.207E+00    0.309E-01
DAV:   4    -0.235282948379E+03    0.38191E-04   -0.67287E-03  8512   0.134E+00    0.278E-01
DAV:   5    -0.235282650402E+03    0.29798E-03   -0.38845E-03  9608   0.119E+00    0.250E-01
DAV:   6    -0.235281655338E+03    0.99506E-03   -0.32555E-03 12056   0.923E-01    0.171E-01
DAV:   7    -0.235281262316E+03    0.39302E-03   -0.25747E-03  9808   0.686E-01    0.721E-02
DAV:   8    -0.235281287189E+03   -0.24872E-04   -0.11717E-03  7216   0.275E-01
  13 F= -.26206288E+03 E0= -.26199542E+03  d E =-.237215E-01  mag=     0.0000
       N       E                     dE             d eps       ncg     rms          rms(c)
DAV:   1    -0.235258173262E+03    0.23089E-01   -0.53752E+00  8048   0.359E+00    0.158E-01
DAV:   2    -0.235268144151E+03   -0.99709E-02   -0.98175E-02 11024   0.130E+00    0.232E-01
DAV:   3    -0.235268062263E+03    0.81888E-04   -0.69186E-03  7936   0.122E+00    0.164E-01
DAV:   4    -0.235267953906E+03    0.10836E-03   -0.22507E-03  7888   0.801E-01    0.138E-01
DAV:   5    -0.235267852780E+03    0.10113E-03   -0.10680E-03  7200   0.507E-01
  14 F= -.26206645E+03 E0= -.26199895E+03  d E =-.272924E-01  mag=     0.0000
       N       E                     dE             d eps       ncg     rms          rms(c)
DAV:   1    -0.235206395399E+03    0.61559E-01   -0.25360E+01  8000   0.774E+00    0.376E-01
DAV:   2    -0.235252242800E+03   -0.45847E-01   -0.46587E-01 10976   0.271E+00    0.514E-01
DAV:   3    -0.235250977513E+03    0.12653E-02   -0.29254E-02  7888   0.223E+00    0.346E-01
DAV:   4    -0.235250846416E+03    0.13110E-03   -0.77479E-03  8368   0.134E+00    0.314E-01
DAV:   5    -0.235250659619E+03    0.18680E-03   -0.46141E-03  8640   0.134E+00    0.288E-01
DAV:   6    -0.235249130404E+03    0.15292E-02   -0.44731E-03 12640   0.108E+00    0.171E-01
DAV:   7    -0.235248689033E+03    0.44137E-03   -0.30031E-03  9856   0.781E-01    0.752E-02
DAV:   8    -0.235248735217E+03   -0.46184E-04   -0.15441E-03  7632   0.322E-01
  15 F= -.26208576E+03 E0= -.26201772E+03  d E =-.193133E-01  mag=     0.0000
       N       E                     dE             d eps       ncg     rms          rms(c)
DAV:   1    -0.235244826371E+03    0.38627E-02   -0.24372E-01  8096   0.770E-01    0.451E-02
DAV:   2    -0.235245345891E+03   -0.51952E-03   -0.48209E-03 10800   0.356E-01    0.555E-02
DAV:   3    -0.235245347029E+03   -0.11376E-05   -0.51682E-04  4640   0.433E-01
  16 F= -.26208618E+03 E0= -.26201811E+03  d E =-.197258E-01  mag=     0.0000
       N       E                     dE             d eps       ncg     rms          rms(c)
DAV:   1    -0.235200507188E+03    0.44839E-01   -0.16946E+01  7984   0.624E+00    0.302E-01
DAV:   2    -0.235231149258E+03   -0.30642E-01   -0.30100E-01 11216   0.263E+00    0.466E-01
DAV:   3    -0.235229895135E+03    0.12541E-02   -0.25381E-02  8288   0.237E+00    0.322E-01
DAV:   4    -0.235229370836E+03    0.52430E-03   -0.77468E-03  8144   0.139E+00    0.242E-01
DAV:   5    -0.235229149548E+03    0.22129E-03   -0.41205E-03  8160   0.812E-01    0.222E-01
DAV:   6    -0.235228602995E+03    0.54655E-03   -0.31418E-03  8384   0.636E-01    0.172E-01
DAV:   7    -0.235228241994E+03    0.36100E-03   -0.31911E-03  9856   0.579E-01    0.672E-02
DAV:   8    -0.235228250240E+03   -0.82458E-05   -0.89988E-04  6640   0.285E-01
  17 F= -.26210433E+03 E0= -.26203655E+03  d E =-.181542E-01  mag=     0.0000
       N       E                     dE             d eps       ncg     rms          rms(c)
DAV:   1    -0.235205928126E+03    0.22314E-01   -0.52119E+00  8000   0.346E+00    0.163E-01
DAV:   2    -0.235215259127E+03   -0.93310E-02   -0.92141E-02 10992   0.136E+00    0.235E-01
DAV:   3    -0.235214897306E+03    0.36182E-03   -0.72482E-03  8032   0.113E+00    0.136E-01
DAV:   4    -0.235214910378E+03   -0.13072E-04   -0.21078E-03  7680   0.481E-01    0.117E-01
DAV:   5    -0.235214979042E+03   -0.68664E-04   -0.91434E-04  6800   0.499E-01
  18 F= -.26211069E+03 E0= -.26204312E+03  d E =-.245135E-01  mag=     0.0000
       N       E                     dE             d eps       ncg     rms          rms(c)
DAV:   1    -0.235145117756E+03    0.69793E-01   -0.20901E+01  8000   0.696E+00    0.333E-01
DAV:   2    -0.235182515053E+03   -0.37397E-01   -0.36948E-01 11072   0.265E+00    0.499E-01
DAV:   3    -0.235181548121E+03    0.96693E-03   -0.29124E-02  8176   0.260E+00    0.388E-01
DAV:   4    -0.235180442721E+03    0.11054E-02   -0.90038E-03  8336   0.155E+00    0.283E-01
DAV:   5    -0.235180154764E+03    0.28796E-03   -0.45473E-03  8752   0.883E-01    0.263E-01
DAV:   6    -0.235179148659E+03    0.10061E-02   -0.50002E-03  9728   0.859E-01    0.186E-01
DAV:   7    -0.235178808283E+03    0.34038E-03   -0.35685E-03  8944   0.722E-01    0.692E-02
DAV:   8    -0.235178817630E+03   -0.93468E-05   -0.11732E-03  7344   0.310E-01
  19 F= -.26211399E+03 E0= -.26204684E+03  d E =-.278123E-01  mag=     0.0000
       N       E                     dE             d eps       ncg     rms          rms(c)
DAV:   1    -0.235152370331E+03    0.26438E-01   -0.65532E+00  8032   0.389E+00    0.185E-01
DAV:   2    -0.235163957551E+03   -0.11587E-01   -0.11506E-01 10848   0.147E+00    0.253E-01
DAV:   3    -0.235163565076E+03    0.39248E-03   -0.84195E-03  7968   0.123E+00    0.155E-01
DAV:   4    -0.235163580777E+03   -0.15701E-04   -0.24864E-03  7776   0.609E-01    0.135E-01
DAV:   5    -0.235163590241E+03   -0.94639E-05   -0.11742E-03  7120   0.586E-01
  20 F= -.26212194E+03 E0= -.26205473E+03  d E =-.795076E-02  mag=     0.0000
       N       E                     dE             d eps       ncg     rms          rms(c)
DAV:   1    -0.235156458224E+03    0.71226E-02   -0.69233E-01  8176   0.137E+00    0.105E-01
DAV:   2    -0.235158679316E+03   -0.22211E-02   -0.12701E-02 13552   0.126E+00    0.200E-01
DAV:   3    -0.235157568051E+03    0.11113E-02   -0.34324E-03  9664   0.123E+00    0.105E-01
DAV:   4    -0.235157495131E+03    0.72920E-04   -0.12606E-03  7328   0.418E-01
  21 F= -.26212337E+03 E0= -.26205630E+03  d E =-.938531E-02  mag=     0.0000
       N       E                     dE             d eps       ncg     rms          rms(c)
DAV:   1    -0.235140546666E+03    0.17021E-01   -0.27436E+00  8048   0.253E+00    0.126E-01
DAV:   2    -0.235145207072E+03   -0.46604E-02   -0.48535E-02 10640   0.719E-01    0.160E-01
DAV:   3    -0.235145200805E+03    0.62662E-05   -0.21508E-03  7672   0.644E-01    0.129E-01
DAV:   4    -0.235145102854E+03    0.97952E-04   -0.71073E-04  5992   0.525E-01
  22 F= -.26212607E+03 E0= -.26205904E+03  d E =-.120839E-01  mag=     0.0000
       N       E                     dE             d eps       ncg     rms          rms(c)
DAV:   1    -0.235142126410E+03    0.30744E-02   -0.12602E-01 10432   0.632E-01    0.101E-01
DAV:   2    -0.235142450496E+03   -0.32409E-03   -0.14859E-03  8048   0.729E-01    0.129E-01
DAV:   3    -0.235142181986E+03    0.26851E-03   -0.11045E-03  5392   0.900E-01    0.866E-02
DAV:   4    -0.235141998985E+03    0.18300E-03   -0.38931E-04  4616   0.497E-01
  23 F= -.26212614E+03 E0= -.26205906E+03  d E =-.121549E-01  mag=     0.0000
       N       E                     dE             d eps       ncg     rms          rms(c)
DAV:   1    -0.235135205128E+03    0.69769E-02   -0.48374E-01  8128   0.110E+00    0.537E-02
DAV:   2    -0.235136302570E+03   -0.10974E-02   -0.90296E-03 11848   0.684E-01    0.983E-02
DAV:   3    -0.235136121065E+03    0.18151E-03   -0.10792E-03  6992   0.586E-01
  24 F= -.26212662E+03 E0= -.26205957E+03  d E =-.126313E-01  mag=     0.0000
       N       E                     dE             d eps       ncg     rms          rms(c)
DAV:   1    -0.235137379368E+03   -0.10768E-02   -0.66941E-01  8032   0.128E+00    0.691E-02
DAV:   2    -0.235138754182E+03   -0.13748E-02   -0.11986E-02 12832   0.610E-01    0.104E-01
DAV:   3    -0.235138657147E+03    0.97035E-04   -0.19807E-03  7552   0.737E-01
  25 F= -.26213167E+03 E0= -.26206457E+03  d E =-.504774E-02  mag=     0.0000
       N       E                     dE             d eps       ncg     rms          rms(c)
DAV:   1    -0.235129001277E+03    0.97529E-02   -0.60276E+00  7904   0.378E+00    0.187E-01
DAV:   2    -0.235140357305E+03   -0.11356E-01   -0.11867E-01 10688   0.111E+00    0.222E-01
DAV:   3    -0.235140295237E+03    0.62068E-04   -0.53996E-03  7776   0.682E-01    0.170E-01
DAV:   4    -0.235140151216E+03    0.14402E-03   -0.91243E-04  7296   0.442E-01
  26 F= -.26214070E+03 E0= -.26207329E+03  d E =-.140851E-01  mag=     0.0000
       N       E                     dE             d eps       ncg     rms          rms(c)
DAV:   1    -0.235139246723E+03    0.10485E-02   -0.31220E-01 10880   0.116E+00    0.171E-01
DAV:   2    -0.235161306476E+03   -0.22060E-01   -0.45395E-02  8720   0.456E+00    0.729E-01
DAV:   3    -0.235138570976E+03    0.22736E-01   -0.33625E-02  8448   0.387E+00    0.860E-02
DAV:   4    -0.235138650378E+03   -0.79402E-04   -0.12989E-03  7872   0.567E-01
  27 F= -.26214090E+03 E0= -.26207358E+03  d E =-.142757E-01  mag=     0.0000
       N       E                     dE             d eps       ncg     rms          rms(c)
DAV:   1    -0.235133153313E+03    0.54177E-02   -0.12907E+00  7984   0.178E+00    0.131E-01
DAV:   2    -0.235135663804E+03   -0.25105E-02   -0.27616E-02 10576   0.504E-01    0.124E-01
DAV:   3    -0.235135601501E+03    0.62303E-04   -0.15206E-03  7856   0.384E-01
  28 F= -.26214463E+03 E0= -.26207759E+03  d E =-.373511E-02  mag=     0.0000
       N       E                     dE             d eps       ncg     rms          rms(c)
DAV:   1    -0.235134877276E+03    0.78653E-03   -0.18865E-02 10944   0.450E-01    0.803E-02
DAV:   2    -0.235138437398E+03   -0.35601E-02   -0.49362E-03  6640   0.185E+00    0.294E-01
DAV:   3    -0.235134735386E+03    0.37020E-02   -0.36509E-03  4960   0.159E+00    0.393E-02
DAV:   4    -0.235134753349E+03   -0.17963E-04   -0.18005E-04  4944   0.195E-01
  29 F= -.26214458E+03 E0= -.26207758E+03  d E =-.368762E-02  mag=     0.0000
       N       E                     dE             d eps       ncg     rms          rms(c)
DAV:   1    -0.235128085274E+03    0.66501E-02   -0.14442E+00  7856   0.184E+00    0.926E-02
DAV:   2    -0.235130614958E+03   -0.25297E-02   -0.26106E-02 10544   0.537E-01    0.112E-01
DAV:   3    -0.235130596147E+03    0.18811E-04   -0.13641E-03  7416   0.439E-01
  30 F= -.26214843E+03 E0= -.26208171E+03  d E =-.384301E-02  mag=     0.0000
       N       E                     dE             d eps       ncg     rms          rms(c)
DAV:   1    -0.235129286941E+03    0.13280E-02   -0.10865E-01 10784   0.625E-01    0.900E-02
DAV:   2    -0.235131348811E+03   -0.20619E-02   -0.28945E-03  7248   0.145E+00    0.236E-01
DAV:   3    -0.235129162209E+03    0.21866E-02   -0.20031E-03  5008   0.129E+00    0.506E-02
DAV:   4    -0.235129154285E+03    0.79240E-05   -0.41743E-04  4912   0.198E-01
  31 F= -.26214913E+03 E0= -.26208242E+03  d E =-.454958E-02  mag=     0.0000
       N       E                     dE             d eps       ncg     rms          rms(c)
DAV:   1    -0.235125598203E+03    0.35640E-02   -0.41476E-01  7984   0.998E-01    0.493E-02
DAV:   2    -0.235126384082E+03   -0.78588E-03   -0.76473E-03 10768   0.352E-01    0.652E-02
DAV:   3    -0.235126392468E+03   -0.83862E-05   -0.61124E-04  5680   0.421E-01
  32 F= -.26215067E+03 E0= -.26208414E+03  d E =-.608739E-02  mag=     0.0000
       N       E                     dE             d eps       ncg     rms          rms(c)
DAV:   1    -0.235117127040E+03    0.92570E-02   -0.16666E+00  7872   0.199E+00    0.114E-01
DAV:   2    -0.235120151644E+03   -0.30246E-02   -0.28715E-02 11312   0.831E-01    0.157E-01
DAV:   3    -0.235120037554E+03    0.11409E-03   -0.35257E-03  7920   0.932E-01    0.130E-01
DAV:   4    -0.235119917032E+03    0.12052E-03   -0.12648E-03  7392   0.530E-01
  33 F= -.26215280E+03 E0= -.26208656E+03  d E =-.822177E-02  mag=     0.0000
       N       E                     dE             d eps       ncg     rms          rms(c)
DAV:   1    -0.235092897935E+03    0.27140E-01   -0.66544E+00  7872   0.395E+00    0.230E-01
DAV:   2    -0.235104245385E+03   -0.11347E-01   -0.12020E-01 10592   0.113E+00    0.260E-01
DAV:   3    -0.235104392965E+03   -0.14758E-03   -0.69569E-03  7952   0.116E+00    0.233E-01
DAV:   4    -0.235104016806E+03    0.37616E-03   -0.23844E-03  7856   0.104E+00    0.176E-01
DAV:   5    -0.235103594506E+03    0.42230E-03   -0.83889E-04  5312   0.703E-01    0.135E-01
DAV:   6    -0.235103556999E+03    0.37507E-04   -0.22577E-03 11424   0.744E-01    0.107E-01
DAV:   7    -0.235103351275E+03    0.20572E-03   -0.84710E-04  6448   0.568E-01    0.616E-02
DAV:   8    -0.235103306343E+03    0.44931E-04   -0.39894E-04  4592   0.213E-01
  34 F= -.26215345E+03 E0= -.26208765E+03  d E =-.886885E-02  mag=     0.0000
       N       E                     dE             d eps       ncg     rms          rms(c)
DAV:   1    -0.235110211422E+03   -0.68601E-02   -0.23637E+00  7856   0.234E+00    0.115E-01
DAV:   2    -0.235113984384E+03   -0.37730E-02   -0.39442E-02 10520   0.650E-01    0.136E-01
DAV:   3    -0.235114013171E+03   -0.28786E-04   -0.25079E-03  7648   0.577E-01    0.112E-01
DAV:   4    -0.235113948257E+03    0.64914E-04   -0.48784E-04  4736   0.456E-01
  35 F= -.26215378E+03 E0= -.26208763E+03  d E =-.920036E-02  mag=     0.0000
       N       E                     dE             d eps       ncg     rms          rms(c)
DAV:   1    -0.235107653896E+03    0.63593E-02   -0.58409E-01  8016   0.124E+00    0.823E-02
DAV:   2    -0.235110000691E+03   -0.23468E-02   -0.10131E-02 12896   0.126E+00    0.172E-01
DAV:   3    -0.235108772585E+03    0.12281E-02   -0.37493E-03 10224   0.133E+00    0.855E-02
DAV:   4    -0.235108679182E+03    0.93403E-04   -0.90090E-04  6976   0.519E-01
  36 F= -.26215367E+03 E0= -.26208778E+03  d E =-.908440E-02  mag=     0.0000
       N       E                     dE             d eps       ncg     rms          rms(c)
DAV:   1    -0.235092755234E+03    0.16017E-01   -0.25830E+00  7744   0.246E+00    0.142E-01
DAV:   2    -0.235097505495E+03   -0.47503E-02   -0.48039E-02 11104   0.909E-01    0.177E-01
DAV:   3    -0.235097434361E+03    0.71133E-04   -0.37726E-03  8064   0.941E-01    0.140E-01
DAV:   4    -0.235097326306E+03    0.10806E-03   -0.12236E-03  7120   0.645E-01
  37 F= -.26215685E+03 E0= -.26209132E+03  d E =-.318536E-02  mag=     0.0000
       N       E                     dE             d eps       ncg     rms          rms(c)
DAV:   1    -0.235090567313E+03    0.68670E-02   -0.55657E-01  7888   0.123E+00    0.126E-01
DAV:   2    -0.235092405250E+03   -0.18379E-02   -0.10041E-02 13104   0.119E+00    0.197E-01
DAV:   3    -0.235091375453E+03    0.10298E-02   -0.29659E-03  9024   0.121E+00    0.111E-01
DAV:   4    -0.235091283517E+03    0.91936E-04   -0.90365E-04  6912   0.555E-01
  38 F= -.26215753E+03 E0= -.26209207E+03  d E =-.386291E-02  mag=     0.0000
       N       E                     dE             d eps       ncg     rms          rms(c)
DAV:   1    -0.235074504321E+03    0.16871E-01   -0.21956E+00  7776   0.233E+00    0.137E-01
DAV:   2    -0.235079016874E+03   -0.45126E-02   -0.41962E-02 11824   0.123E+00    0.192E-01
DAV:   3    -0.235078514324E+03    0.50255E-03   -0.44090E-03  8288   0.101E+00    0.112E-01
DAV:   4    -0.235078581942E+03   -0.67619E-04   -0.22325E-03  7600   0.314E-01    0.867E-02
DAV:   5    -0.235078639324E+03   -0.57382E-04   -0.54368E-04  5440   0.389E-01
  39 F= -.26215834E+03 E0= -.26209335E+03  d E =-.467390E-02  mag=     0.0000
       N       E                     dE             d eps       ncg     rms          rms(c)
DAV:   1    -0.235070105581E+03    0.84764E-02   -0.92923E-01  8464   0.167E+00    0.115E-01
DAV:   2    -0.235080889206E+03   -0.10784E-01   -0.29147E-02 13072   0.302E+00    0.466E-01
DAV:   3    -0.235071106772E+03    0.97824E-02   -0.16716E-02 12144   0.258E+00    0.778E-02
DAV:   4    -0.235071424192E+03   -0.31742E-03   -0.39741E-03  8496   0.279E-01    0.628E-02
DAV:   5    -0.235071445450E+03   -0.21258E-04   -0.77813E-04  6608   0.242E-01
  40 F= -.26216039E+03 E0= -.26209551E+03  d E =-.204885E-02  mag=     0.0000
       N       E                     dE             d eps       ncg     rms          rms(c)
DAV:   1    -0.235034197754E+03    0.37226E-01   -0.83555E+00  7712   0.441E+00    0.243E-01
DAV:   2    -0.235048417998E+03   -0.14220E-01   -0.14488E-01 10640   0.140E+00    0.279E-01
DAV:   3    -0.235048660157E+03   -0.24216E-03   -0.10425E-02  8000   0.160E+00    0.243E-01
DAV:   4    -0.235048158540E+03    0.50162E-03   -0.32610E-03  8032   0.119E+00    0.178E-01
DAV:   5    -0.235047919671E+03    0.23887E-03   -0.16137E-03  7976   0.845E-01    0.153E-01
DAV:   6    -0.235047684128E+03    0.23554E-03   -0.22830E-03 10880   0.662E-01    0.108E-01
DAV:   7    -0.235047547557E+03    0.13657E-03   -0.10358E-03  7776   0.477E-01
  41 F= -.26216429E+03 E0= -.26209964E+03  d E =-.595114E-02  mag=     0.0000
       N       E                     dE             d eps       ncg     rms          rms(c)
DAV:   1    -0.235040369168E+03    0.73150E-02   -0.48056E-01  7760   0.107E+00    0.622E-02
DAV:   2    -0.235041360145E+03   -0.99098E-03   -0.88583E-03 11792   0.471E-01    0.822E-02
DAV:   3    -0.235041329544E+03    0.30601E-04   -0.95585E-04  6096   0.621E-01
  42 F= -.26216475E+03 E0= -.26210023E+03  d E =-.641153E-02  mag=     0.0000
       N       E                     dE             d eps       ncg     rms          rms(c)
DAV:   1    -0.235035035091E+03    0.63251E-02   -0.65145E-01  7760   0.127E+00    0.845E-02
DAV:   2    -0.235036268763E+03   -0.12337E-02   -0.12624E-02 10960   0.508E-01    0.985E-02
DAV:   3    -0.235036239716E+03    0.29047E-04   -0.10471E-03  7376   0.500E-01
  43 F= -.26216693E+03 E0= -.26210262E+03  d E =-.218100E-02  mag=     0.0000
       N       E                     dE             d eps       ncg     rms          rms(c)
DAV:   1    -0.235009460199E+03    0.26809E-01   -0.58113E+00  7824   0.371E+00    0.232E-01
DAV:   2    -0.235021385178E+03   -0.11925E-01   -0.10151E-01 11984   0.201E+00    0.350E-01
DAV:   3    -0.235019607163E+03    0.17780E-02   -0.15285E-02  9032   0.218E+00    0.248E-01
DAV:   4    -0.235019077199E+03    0.52996E-03   -0.48789E-03  8256   0.999E-01    0.173E-01
DAV:   5    -0.235019064840E+03    0.12358E-04   -0.34271E-03  8032   0.698E-01    0.150E-01
DAV:   6    -0.235018891929E+03    0.17291E-03   -0.25626E-03  8368   0.564E-01    0.924E-02
DAV:   7    -0.235018837276E+03    0.54654E-04   -0.12577E-03  7712   0.417E-01
  44 F= -.26217130E+03 E0= -.26210721E+03  d E =-.655145E-02  mag=     0.0000
       N       E                     dE             d eps       ncg     rms          rms(c)
DAV:   1    -0.234935291567E+03    0.83600E-01   -0.23194E+01  7776   0.738E+00    0.426E-01
DAV:   2    -0.234978751990E+03   -0.43460E-01   -0.44154E-01 10688   0.286E+00    0.532E-01
DAV:   3    -0.234977270593E+03    0.14814E-02   -0.31075E-02  8016   0.255E+00    0.355E-01
DAV:   4    -0.234977218433E+03    0.52160E-04   -0.94154E-03  8176   0.174E+00    0.317E-01
DAV:   5    -0.234976343652E+03    0.87478E-03   -0.60429E-03  8800   0.150E+00    0.254E-01
DAV:   6    -0.234975634999E+03    0.70865E-03   -0.52184E-03 11616   0.113E+00    0.174E-01
DAV:   7    -0.234975207554E+03    0.42745E-03   -0.29872E-03  9440   0.804E-01    0.564E-02
DAV:   8    -0.234975297339E+03   -0.89786E-04   -0.15808E-03  7584   0.282E-01
  45 F= -.26217152E+03 E0= -.26210802E+03  d E =-.677102E-02  mag=     0.0000
       N       E                     dE             d eps       ncg     rms          rms(c)
DAV:   1    -0.234989277388E+03   -0.14070E-01   -0.72877E+00  7680   0.413E+00    0.211E-01
DAV:   2    -0.235002155287E+03   -0.12878E-01   -0.13376E-01 10384   0.113E+00    0.249E-01
DAV:   3    -0.235002062557E+03    0.92729E-04   -0.71417E-03  7808   0.945E-01    0.200E-01
DAV:   4    -0.235002000263E+03    0.62295E-04   -0.15622E-03  7824   0.795E-01
  46 F= -.26217365E+03 E0= -.26210994E+03  d E =-.889612E-02  mag=     0.0000
       N       E                     dE             d eps       ncg     rms          rms(c)
DAV:   1    -0.234985624519E+03    0.16438E-01   -0.18059E+00  8432   0.231E+00    0.162E-01
DAV:   2    -0.235003606330E+03   -0.17982E-01   -0.55382E-02 13696   0.377E+00    0.555E-01
DAV:   3    -0.234988832793E+03    0.14774E-01   -0.28673E-02 12864   0.352E+00    0.148E-01
DAV:   4    -0.234988538615E+03    0.29418E-03   -0.35039E-03 12304   0.966E-01    0.664E-02
DAV:   5    -0.234988669491E+03   -0.13088E-03   -0.26363E-03  8272   0.431E-01    0.421E-02
DAV:   6    -0.234988741944E+03   -0.72454E-04   -0.96779E-04  7024   0.174E-01
  47 F= -.26217267E+03 E0= -.26210901E+03  d E =-.791492E-02  mag=     0.0000
       N       E                     dE             d eps       ncg     rms          rms(c)
DAV:   1    -0.234993599965E+03   -0.49305E-02   -0.33032E-01  7720   0.877E-01    0.454E-02
DAV:   2    -0.234994202100E+03   -0.60214E-03   -0.59175E-03 10800   0.341E-01    0.586E-02
DAV:   3    -0.234994193530E+03    0.85696E-05   -0.48440E-04  5776   0.333E-01
  48 F= -.26217288E+03 E0= -.26210917E+03  d E =-.813165E-02  mag=     0.0000
       N       E                     dE             d eps       ncg     rms          rms(c)
DAV:   1    -0.234986453739E+03    0.77484E-02   -0.72548E-01  7792   0.133E+00    0.669E-02
DAV:   2    -0.234988055675E+03   -0.16019E-02   -0.11346E-02 12912   0.717E-01    0.111E-01
DAV:   3    -0.234987659814E+03    0.39586E-03   -0.23025E-03  7984   0.873E-01    0.787E-02
DAV:   4    -0.234987654187E+03    0.56270E-05   -0.93303E-04  7120   0.262E-01
  49 F= -.26217419E+03 E0= -.26211054E+03  d E =-.130138E-02  mag=     0.0000
       N       E                     dE             d eps       ncg     rms          rms(c)
DAV:   1    -0.234975397895E+03    0.12262E-01   -0.14261E+00  7744   0.183E+00    0.115E-01
DAV:   2    -0.234977824416E+03   -0.24265E-02   -0.26201E-02 10432   0.444E-01    0.112E-01
DAV:   3    -0.234977740093E+03    0.84323E-04   -0.61881E-04  6400   0.269E-01
  50 F= -.26217526E+03 E0= -.26211174E+03  d E =-.237969E-02  mag=     0.0000
       N       E                     dE             d eps       ncg     rms          rms(c)
DAV:   1    -0.234979874989E+03   -0.20506E-02   -0.64675E-02 10864   0.536E-01    0.646E-02
DAV:   2    -0.234980177635E+03   -0.30265E-03   -0.62057E-04  5744   0.765E-01    0.105E-01
DAV:   3    -0.234979831006E+03    0.34663E-03   -0.32594E-04  4672   0.589E-01    0.295E-02
DAV:   4    -0.234979880856E+03   -0.49850E-04   -0.14039E-04  4672   0.274E-01
  51 F= -.26217504E+03 E0= -.26211141E+03  d E =-.215920E-02  mag=     0.0000
       N       E                     dE             d eps       ncg     rms          rms(c)
DAV:   1    -0.234978332759E+03    0.14982E-02   -0.29542E-02 10976   0.391E-01    0.226E-02
DAV:   2    -0.234978546483E+03   -0.21372E-03   -0.33008E-04  4896   0.462E-01    0.736E-02
DAV:   3    -0.234978333929E+03    0.21255E-03   -0.27269E-04  4672   0.409E-01    0.175E-02
DAV:   4    -0.234978339892E+03   -0.59627E-05   -0.84762E-05  4528   0.937E-02
  52 F= -.26217508E+03 E0= -.26211153E+03  d E =-.219670E-02  mag=     0.0000
       N       E                     dE             d eps       ncg     rms          rms(c)
DAV:   1    -0.234979015494E+03   -0.68156E-03   -0.58789E-02  7984   0.381E-01    0.197E-02
DAV:   2    -0.234979097973E+03   -0.82480E-04   -0.69415E-04  6560   0.187E-01
  53 F= -.26217564E+03 E0= -.26211208E+03  d E =-.558511E-03  mag=     0.0000
       N       E                     dE             d eps       ncg     rms          rms(c)
DAV:   1    -0.234979738903E+03   -0.72341E-03   -0.89008E-02  8800   0.517E-01    0.304E-02
DAV:   2    -0.234980071210E+03   -0.33231E-03   -0.93917E-04  6256   0.540E-01    0.907E-02
DAV:   3    -0.234979831241E+03    0.23997E-03   -0.86772E-04  6224   0.492E-01    0.231E-02
DAV:   4    -0.234979890097E+03   -0.58856E-04   -0.64749E-04  5488   0.959E-02
  54 F= -.26217619E+03 E0= -.26211270E+03  d E =-.111026E-02  mag=     0.0000
       N       E                     dE             d eps       ncg     rms          rms(c)
DAV:   1    -0.234980257661E+03   -0.42642E-03   -0.34876E-01  7952   0.907E-01    0.428E-02
DAV:   2    -0.234980914730E+03   -0.65707E-03   -0.63987E-03 11296   0.338E-01    0.691E-02
DAV:   3    -0.234980903561E+03    0.11169E-04   -0.65253E-04  6096   0.353E-01
  55 F= -.26217673E+03 E0= -.26211329E+03  d E =-.164801E-02  mag=     0.0000
       N       E                     dE             d eps       ncg     rms          rms(c)
DAV:   1    -0.234980375923E+03    0.53881E-03   -0.70352E-02  8016   0.428E-01    0.438E-02
DAV:   2    -0.234980471189E+03   -0.95266E-04   -0.94444E-04  7376   0.234E-01
  56 F= -.26217709E+03 E0= -.26211375E+03  d E =-.365131E-03  mag=     0.0000
