<?xml version="1.0" encoding="ISO-8859-1"?>
<modeling>
 <generator>
  <i name="program" type="string">vasp </i>
  <i name="version" type="string">6.3.2  </i>
  <i name="subversion" type="string">27Jun22 (build Aug 17 2022 15:43:34) complex                          parallel </i>
  <i name="platform" type="string">tv2STDVTST </i>
  <i name="date" type="string">2025 02 17 </i>
  <i name="time" type="string">16:01:41 </i>
 </generator>
 <incar>
  <i type="int" name="ISTART">     0</i>
  <i type="string" name="PREC">Normal</i>
  <i type="int" name="ISPIN">     2</i>
  <i type="int" name="ICHARG">     2</i>
  <i type="int" name="IBRION">     2</i>
  <i name="EDIFF">      0.00020000</i>
  <i name="EDIFFG">     -0.03000000</i>
  <i type="int" name="NSW">   800</i>
  <i type="int" name="ISIF">     2</i>
  <i type="int" name="ISYM">     1</i>
  <i name="ENCUT">    400.00000000</i>
  <i name="POTIM">      0.50000000</i>
  <i type="logical" name="LREAL"> F  </i>
  <i type="int" name="ISMEAR">     1</i>
  <i name="SIGMA">      0.20000000</i>
  <i type="logical" name="LWAVE"> F  </i>
  <i type="logical" name="LCHARG"> F  </i>
  <i type="string" name="GGA">PE</i>
  <i type="int" name="IVDW">    11</i>
 </incar>
 <primitive_cell>
  <structure name="primitive_cell" >
   <crystal>
    <varray name="basis" >
     <v>       7.26000023       0.00000000       0.00000000 </v>
     <v>       0.00000000       7.26000023       0.00000000 </v>
     <v>       0.00000000       0.00000000      27.70499992 </v>
    </varray>
    <i name="volume">   1460.26414606 </i>
    <varray name="rec_basis" >
     <v>       0.13774104       0.00000000       0.00000000 </v>
     <v>       0.00000000       0.13774104       0.00000000 </v>
     <v>       0.00000000       0.00000000       0.03609457 </v>
    </varray>
   </crystal>
   <varray name="positions" >
    <v>       0.00000000       0.00000000       0.00000000 </v>
    <v>       0.00000000       0.50000000       0.00000000 </v>
    <v>       0.50000000       0.00000000       0.00000000 </v>
    <v>       0.50000000       0.50000000       0.00000000 </v>
    <v>       0.25000000       0.25000000       0.00000000 </v>
    <v>       0.25000000       0.75000000       0.00000000 </v>
    <v>       0.75000000       0.25000000       0.00000000 </v>
    <v>       0.75000000       0.75000000       0.00000000 </v>
    <v>       0.00000000       0.25000000       0.06551164 </v>
    <v>       0.00000000       0.75000000       0.06551164 </v>
    <v>       0.50000000       0.25000000       0.06551164 </v>
    <v>       0.50000000       0.75000000       0.06551164 </v>
    <v>       0.25000000       0.00000000       0.06551164 </v>
    <v>       0.25000000       0.50000000       0.06551164 </v>
    <v>       0.75000000       0.00000000       0.06551164 </v>
    <v>       0.75000000       0.50000000       0.06551164 </v>
    <v>       0.00000000       0.00000000       0.13164128 </v>
    <v>       0.00000000       0.50000000       0.13164128 </v>
    <v>       0.50000000       0.00000000       0.13164128 </v>
    <v>       0.50000000       0.50000000       0.13164128 </v>
    <v>       0.25000000       0.25000000       0.13164128 </v>
    <v>       0.25000000       0.75000000       0.13164128 </v>
    <v>       0.75000000       0.25000000       0.13164128 </v>
    <v>       0.75000000       0.75000000       0.13164128 </v>
    <v>       0.00000000       0.25000000       0.19677891 </v>
    <v>       0.00000000       0.75000000       0.19677891 </v>
    <v>       0.50000000       0.25000000       0.19677891 </v>
    <v>       0.50000000       0.75000000       0.19677891 </v>
    <v>       0.25000000       0.00000000       0.19677891 </v>
    <v>       0.25000000       0.50000000       0.19677891 </v>
    <v>       0.75000000       0.00000000       0.19677891 </v>
    <v>       0.75000000       0.50000000       0.19677891 </v>
    <v>       0.00000000       0.00000000       0.26184662 </v>
    <v>       0.00000000       0.50000000       0.26184662 </v>
    <v>       0.50000000       0.00000000       0.26184662 </v>
    <v>       0.50000000       0.50000000       0.26184662 </v>
    <v>       0.25000000       0.25000000       0.26184662 </v>
    <v>       0.25000000       0.75000000       0.26184662 </v>
    <v>       0.75000000       0.25000000       0.26184662 </v>
    <v>       0.75000000       0.75000000       0.26184662 </v>
    <v>       0.00000000       0.25000000       0.32758887 </v>
    <v>       0.00000000       0.75000000       0.32758887 </v>
    <v>       0.50000000       0.25000000       0.32758887 </v>
    <v>       0.50000000       0.75000000       0.32758887 </v>
    <v>       0.25000000       0.00000000       0.32758887 </v>
    <v>       0.25000000       0.50000000       0.32758887 </v>
    <v>       0.75000000       0.00000000       0.32758887 </v>
    <v>       0.75000000       0.50000000       0.32758887 </v>
    <v>       0.00000000       0.00000000       0.39185763 </v>
    <v>       0.00000000       0.50000000       0.39185763 </v>
    <v>       0.50000000       0.00000000       0.39185763 </v>
    <v>       0.50000000       0.50000000       0.39185763 </v>
    <v>       0.25000000       0.25000000       0.39185763 </v>
    <v>       0.25000000       0.75000000       0.39185763 </v>
    <v>       0.75000000       0.25000000       0.39185763 </v>
    <v>       0.75000000       0.75000000       0.39185763 </v>
    <v>       0.00000000       0.25000000       0.45475490 </v>
    <v>       0.00000000       0.75000000       0.45475490 </v>
    <v>       0.50000000       0.25000000       0.45475490 </v>
    <v>       0.50000000       0.75000000       0.45475490 </v>
    <v>       0.25000000       0.00000000       0.45475490 </v>
    <v>       0.25000000       0.50000000       0.45475490 </v>
    <v>       0.75000000       0.00000000       0.45475490 </v>
    <v>       0.75000000       0.50000000       0.45475490 </v>
    <v>       0.50000000       0.75000000       0.50150658 </v>
    <v>       0.50000000       0.82265863       0.52054652 </v>
   </varray>
  </structure>
  <varray name="primitive_index" >
   <v type="int" >        1 </v>
   <v type="int" >        2 </v>
   <v type="int" >        3 </v>
   <v type="int" >        4 </v>
   <v type="int" >        5 </v>
   <v type="int" >        6 </v>
   <v type="int" >        7 </v>
   <v type="int" >        8 </v>
   <v type="int" >        9 </v>
   <v type="int" >       10 </v>
   <v type="int" >       11 </v>
   <v type="int" >       12 </v>
   <v type="int" >       13 </v>
   <v type="int" >       14 </v>
   <v type="int" >       15 </v>
   <v type="int" >       16 </v>
   <v type="int" >       17 </v>
   <v type="int" >       18 </v>
   <v type="int" >       19 </v>
   <v type="int" >       20 </v>
   <v type="int" >       21 </v>
   <v type="int" >       22 </v>
   <v type="int" >       23 </v>
   <v type="int" >       24 </v>
   <v type="int" >       25 </v>
   <v type="int" >       26 </v>
   <v type="int" >       27 </v>
   <v type="int" >       28 </v>
   <v type="int" >       29 </v>
   <v type="int" >       30 </v>
   <v type="int" >       31 </v>
   <v type="int" >       32 </v>
   <v type="int" >       33 </v>
   <v type="int" >       34 </v>
   <v type="int" >       35 </v>
   <v type="int" >       36 </v>
   <v type="int" >       37 </v>
   <v type="int" >       38 </v>
   <v type="int" >       39 </v>
   <v type="int" >       40 </v>
   <v type="int" >       41 </v>
   <v type="int" >       42 </v>
   <v type="int" >       43 </v>
   <v type="int" >       44 </v>
   <v type="int" >       45 </v>
   <v type="int" >       46 </v>
   <v type="int" >       47 </v>
   <v type="int" >       48 </v>
   <v type="int" >       49 </v>
   <v type="int" >       50 </v>
   <v type="int" >       51 </v>
   <v type="int" >       52 </v>
   <v type="int" >       53 </v>
   <v type="int" >       54 </v>
   <v type="int" >       55 </v>
   <v type="int" >       56 </v>
   <v type="int" >       57 </v>
   <v type="int" >       58 </v>
   <v type="int" >       59 </v>
   <v type="int" >       60 </v>
   <v type="int" >       61 </v>
   <v type="int" >       62 </v>
   <v type="int" >       63 </v>
   <v type="int" >       64 </v>
   <v type="int" >       65 </v>
   <v type="int" >       66 </v>
  </varray>
 </primitive_cell>
 <kpoints>
  <generation param="Monkhorst-Pack">
   <v type="int" name="divisions">       3        3        1 </v>
   <v name="usershift">      0.00000000       0.00000000       0.00000000 </v>
   <v name="genvec1">      0.33333333       0.00000000       0.00000000 </v>
   <v name="genvec2">      0.00000000       0.33333333       0.00000000 </v>
   <v name="genvec3">      0.00000000       0.00000000       1.00000000 </v>
   <v name="shift">      0.00000000       0.00000000       0.00000000 </v>
  </generation>
  <varray name="kpointlist" >
   <v>       0.00000000       0.00000000       0.00000000 </v>
   <v>       0.33333333       0.00000000       0.00000000 </v>
   <v>       0.00000000       0.33333333       0.00000000 </v>
   <v>       0.33333333       0.33333333       0.00000000 </v>
  </varray>
  <varray name="weights" >
   <v>       0.11111111 </v>
   <v>       0.22222222 </v>
   <v>       0.22222222 </v>
   <v>       0.44444444 </v>
  </varray>
 </kpoints>
 <parameters>
  <separator name="general" >
   <i type="string" name="SYSTEM">unknown system</i>
   <i type="logical" name="LCOMPAT"> F  </i>
  </separator>
  <separator name="electronic" >
   <i type="string" name="PREC">normal</i>
   <i name="ENMAX">    400.00000000</i>
   <i name="ENAUG">    586.98000000</i>
   <i name="EDIFF">      0.00020000</i>
   <i type="int" name="IALGO">    38</i>
   <i type="int" name="IWAVPR">    11</i>
   <i type="int" name="NBANDS">   456</i>
   <i type="int" name="NBANDSLOW">    -1</i>
   <i type="int" name="NBANDSHIGH">    -1</i>
   <i name="NELECT">    706.00000000</i>
   <i type="int" name="TURBO">     0</i>
   <i type="int" name="IRESTART">     0</i>
   <i type="int" name="NREBOOT">     0</i>
   <i type="int" name="NMIN">     0</i>
   <i name="EREF">      0.00000000</i>
   <separator name="electronic smearing" >
    <i type="int" name="ISMEAR">     1</i>
    <i name="SIGMA">      0.20000000</i>
    <i name="KSPACING">      0.50000000</i>
    <i type="logical" name="KGAMMA"> T  </i>
    <i type="logical" name="KBLOWUP"> T  </i>
   </separator>
   <separator name="electronic projectors" >
    <i type="logical" name="LREAL"> F  </i>
    <v name="ROPT">      0.00000000      0.00000000</v>
    <i type="int" name="LMAXPAW">  -100</i>
    <i type="int" name="LMAXMIX">     2</i>
    <i type="logical" name="NLSPLINE"> F  </i>
   </separator>
   <separator name="electronic startup" >
    <i type="int" name="ISTART">     0</i>
    <i type="int" name="ICHARG">     2</i>
    <i type="int" name="INIWAV">     1</i>
   </separator>
   <separator name="electronic spin" >
    <i type="int" name="ISPIN">     2</i>
    <i type="logical" name="LNONCOLLINEAR"> F  </i>
    <v name="MAGMOM">      1.00000000      1.00000000      1.00000000      1.00000000      1.00000000      1.00000000      1.00000000      1.00000000      1.00000000      1.00000000      1.00000000      1.00000000      1.00000000      1.00000000      1.00000000      1.00000000      1.00000000      1.00000000      1.00000000      1.00000000
      1.00000000      1.00000000      1.00000000      1.00000000      1.00000000      1.00000000      1.00000000      1.00000000      1.00000000      1.00000000      1.00000000      1.00000000      1.00000000      1.00000000      1.00000000      1.00000000      1.00000000      1.00000000      1.00000000      1.00000000
      1.00000000      1.00000000      1.00000000      1.00000000      1.00000000      1.00000000      1.00000000      1.00000000      1.00000000      1.00000000      1.00000000      1.00000000      1.00000000      1.00000000      1.00000000      1.00000000      1.00000000      1.00000000      1.00000000      1.00000000
      1.00000000      1.00000000      1.00000000      1.00000000      1.00000000      1.00000000</v>
    <i name="NUPDOWN">     -1.00000000</i>
    <i type="logical" name="LSORBIT"> F  </i>
    <v name="SAXIS">      0.00000000      0.00000000      1.00000000</v>
    <i type="logical" name="LSPIRAL"> F  </i>
    <v name="QSPIRAL">      0.00000000      0.00000000      0.00000000</v>
    <i type="logical" name="LZEROZ"> F  </i>
   </separator>
   <separator name="electronic exchange-correlation" >
    <i type="logical" name="LASPH"> F  </i>
    <i type="logical" name="LMETAGGA"> F  </i>
   </separator>
   <separator name="electronic convergence" >
    <i type="int" name="NELM">    60</i>
    <i type="int" name="NELMDL">    -5</i>
    <i type="int" name="NELMIN">     2</i>
    <i name="ENINI">    400.00000000</i>
    <separator name="electronic convergence detail" >
     <i type="logical" name="LDIAG"> T  </i>
     <i type="logical" name="LSUBROT"> F  </i>
     <i name="WEIMIN">      0.00100000</i>
     <i name="EBREAK">      0.00000011</i>
     <i name="DEPER">      0.30000000</i>
     <i type="int" name="NRMM">     4</i>
     <i name="TIME">      0.40000000</i>
    </separator>
   </separator>
   <separator name="electronic mixer" >
    <i name="AMIX">      0.40000000</i>
    <i name="BMIX">      1.00000000</i>
    <i name="AMIN">      0.10000000</i>
    <i name="AMIX_MAG">      1.60000000</i>
    <i name="BMIX_MAG">      1.00000000</i>
    <separator name="electronic mixer details" >
     <i type="int" name="IMIX">     4</i>
     <i type="logical" name="MIXFIRST"> F  </i>
     <i type="int" name="MAXMIX">   -45</i>
     <i name="WC">    100.00000000</i>
     <i type="int" name="INIMIX">     1</i>
     <i type="int" name="MIXPRE">     1</i>
     <i type="int" name="MREMOVE">     5</i>
    </separator>
   </separator>
   <separator name="electronic dipolcorrection" >
    <i type="logical" name="LDIPOL"> F  </i>
    <i type="logical" name="LMONO"> F  </i>
    <i type="int" name="IDIPOL">     0</i>
    <i name="EPSILON">      1.00000000</i>
    <v name="DIPOL">   -100.00000000   -100.00000000   -100.00000000</v>
    <i name="EFIELD">      0.00000000</i>
   </separator>
  </separator>
  <separator name="grids" >
   <i type="int" name="NGX">    36</i>
   <i type="int" name="NGY">    36</i>
   <i type="int" name="NGZ">   140</i>
   <i type="int" name="NGXF">    72</i>
   <i type="int" name="NGYF">    72</i>
   <i type="int" name="NGZF">   280</i>
   <i type="logical" name="ADDGRID"> F  </i>
  </separator>
  <separator name="ionic" >
   <i type="int" name="NSW">   800</i>
   <i type="int" name="IBRION">     2</i>
   <i type="int" name="MDALGO">     0</i>
   <i type="int" name="ISIF">     2</i>
   <i name="PSTRESS">      0.00000000</i>
   <i name="EDIFFG">     -0.03000000</i>
   <i type="int" name="NFREE">     1</i>
   <i name="POTIM">      0.50000000</i>
   <i name="SMASS">     -3.00000000</i>
   <i name="SCALEE">      1.00000000</i>
  </separator>
  <separator name="ionic md" >
   <i name="TEBEG">      0.00010000</i>
   <i name="TEEND">      0.00010000</i>
   <i type="int" name="NBLOCK">     1</i>
   <i type="int" name="KBLOCK">   800</i>
   <i type="int" name="NPACO">   256</i>
   <i name="APACO">     10.00000000</i>
  </separator>
  <separator name="symmetry" >
   <i type="int" name="ISYM">     1</i>
   <i name="SYMPREC">      0.00001000</i>
  </separator>
  <separator name="dos" >
   <i type="int" name="LORBIT">     0</i>
   <v name="RWIGS">     -1.00000000     -1.00000000</v>
   <i type="int" name="NEDOS">   301</i>
   <i name="EMIN">     10.00000000</i>
   <i name="EMAX">    -10.00000000</i>
   <i name="EFERMI">      0.00000000</i>
  </separator>
  <separator name="writing" >
   <i type="int" name="NWRITE">     2</i>
   <i type="logical" name="LWAVE"> F  </i>
   <i type="logical" name="LDOWNSAMPLE"> F  </i>
   <i type="logical" name="LCHARG"> F  </i>
   <i type="logical" name="LPARD"> F  </i>
   <i type="logical" name="LVTOT"> F  </i>
   <i type="logical" name="LVHAR"> F  </i>
   <i type="logical" name="LELF"> F  </i>
   <i type="logical" name="LOPTICS"> F  </i>
   <v name="STM">      0.00000000      0.00000000      0.00000000      0.00000000      0.00000000      0.00000000      0.00000000</v>
  </separator>
  <separator name="performance" >
   <i type="int" name="NPAR">     4</i>
   <i type="int" name="NSIM">     4</i>
   <i type="int" name="NBLK">    -1</i>
   <i type="logical" name="LPLANE"> T  </i>
   <i type="logical" name="LSCALAPACK"> T  </i>
   <i type="logical" name="LSCAAWARE"> F  </i>
   <i type="logical" name="LSCALU"> F  </i>
   <i type="logical" name="LASYNC"> F  </i>
   <i type="logical" name="LORBITALREAL"> F  </i>
  </separator>
  <separator name="miscellaneous" >
   <i type="int" name="IDIOT">     3</i>
   <i type="int" name="PHON_NSTRUCT">    -1</i>
   <i type="logical" name="LMUSIC"> F  </i>
   <v name="POMASS">     63.54600000      1.00000000</v>
   <v name="DARWINR">      0.00000000      0.00000000</v>
   <v name="DARWINV">      1.00000000      1.00000000</v>
   <i type="logical" name="LCORR"> T  </i>
  </separator>
  <i type="logical" name="GGA_COMPAT"> T  </i>
  <i type="logical" name="LBERRY"> F  </i>
  <i type="int" name="ICORELEVEL">     0</i>
  <i type="logical" name="LDAU"> F  </i>
  <i type="int" name="I_CONSTRAINED_M">     0</i>
  <separator name="electronic exchange-correlation" >
   <i type="string" name="GGA">PE</i>
   <i type="int" name="VOSKOWN">     0</i>
   <i type="logical" name="LHFCALC"> F  </i>
   <i type="string" name="PRECFOCK"></i>
   <i type="logical" name="LSYMGRAD"> F  </i>
   <i type="logical" name="LHFONE"> F  </i>
   <i type="logical" name="LRHFCALC"> F  </i>
   <i type="logical" name="LTHOMAS"> F  </i>
   <i type="logical" name="LMODELHF"> F  </i>
   <i type="logical" name="LFOCKACE"> F  </i>
   <i name="ENCUT4O">     -1.00000000</i>
   <i type="int" name="EXXOEP">     0</i>
   <i type="int" name="FOURORBIT">     0</i>
   <i name="AEXX">      0.00000000</i>
   <i name="HFALPHA">      0.00000000</i>
   <i name="MCALPHA">      0.00000000</i>
   <i name="ALDAX">      1.00000000</i>
   <i name="AGGAX">      1.00000000</i>
   <i name="ALDAC">      1.00000000</i>
   <i name="AGGAC">      1.00000000</i>
   <i type="int" name="NKREDX">     1</i>
   <i type="int" name="NKREDY">     1</i>
   <i type="int" name="NKREDZ">     1</i>
   <i type="logical" name="SHIFTRED"> F  </i>
   <i type="logical" name="ODDONLY"> F  </i>
   <i type="logical" name="EVENONLY"> F  </i>
   <i type="int" name="LMAXFOCK">     0</i>
   <i type="int" name="NMAXFOCKAE">     0</i>
   <i type="logical" name="LFOCKAEDFT"> F  </i>
   <i name="HFSCREEN">      0.00000000</i>
   <i name="HFSCREENC">      0.00000000</i>
   <i type="int" name="NBANDSGWLOW">     0</i>
  </separator>
  <separator name="vdW DFT" >
   <i type="logical" name="LUSE_VDW"> F  </i>
   <i name="Zab_VDW">     -0.84910000</i>
   <i name="PARAM1">      0.12340000</i>
   <i name="PARAM2">      1.00000000</i>
   <i name="PARAM3">      0.00000000</i>
  </separator>
  <separator name="model GW" >
   <i type="int" name="MODEL_GW">     0</i>
   <i name="MODEL_EPS0">     13.27512860</i>
   <i name="MODEL_ALPHA">      1.00000000</i>
  </separator>
  <separator name="linear response parameters" >
   <i type="logical" name="LEPSILON"> F  </i>
   <i type="logical" name="LRPA"> F  </i>
   <i type="logical" name="LNABLA"> F  </i>
   <i type="logical" name="LVEL"> F  </i>
   <i name="CSHIFT">      0.10000000</i>
   <i name="OMEGAMAX">     -1.00000000</i>
   <i name="DEG_THRESHOLD">      0.00200000</i>
   <i name="RTIME">     -0.10000000</i>
   <i name="WPLASMAI">      0.00000000</i>
   <v name="DFIELD">      0.00000000      0.00000000      0.00000000</v>
   <v name="WPLASMA">      0.00000000      0.00000000      0.00000000      0.00000000      0.00000000      0.00000000      0.00000000      0.00000000      0.00000000</v>
  </separator>
  <separator name="orbital magnetization" >
   <i type="logical" name="NUCIND"> F  </i>
   <v name="MAGPOS">      0.00000000      0.00000000      0.00000000</v>
   <i type="logical" name="LNICSALL"> T  </i>
   <i type="logical" name="ORBITALMAG"> F  </i>
   <i type="logical" name="LMAGBLOCH"> F  </i>
   <i type="logical" name="LCHIMAG"> F  </i>
   <i type="logical" name="LGAUGE"> T  </i>
   <i type="int" name="MAGATOM">     0</i>
   <v name="MAGDIPOL">      0.00000000      0.00000000      0.00000000</v>
   <v name="AVECCONST">      0.00000000      0.00000000      0.00000000</v>
  </separator>
  <separator name="response functions" >
   <i type="logical" name="LFINITE_TEMPERATURE"> F  </i>
   <i type="logical" name="LADDER"> F  </i>
   <i type="logical" name="LRPAFORCE"> F  </i>
   <i type="logical" name="LFXC"> F  </i>
   <i type="logical" name="LHARTREE"> T  </i>
   <i type="int" name="IBSE">     0</i>
   <v type="int" name="KPOINT">    -1     0     0     0</v>
   <i type="logical" name="LTCTC"> F  </i>
   <i type="logical" name="LTCTE"> F  </i>
   <i type="logical" name="LTETE"> F  </i>
   <i type="logical" name="LTRIPLET"> F  </i>
   <i type="logical" name="LFXCEPS"> F  </i>
   <i type="logical" name="LFXHEG"> F  </i>
   <i type="int" name="NATURALO">     2</i>
   <i type="logical" name="LHOLEGF"> F  </i>
   <i type="logical" name="L2ORDER"> F  </i>
   <i type="logical" name="LDMP1"> F  </i>
   <i type="logical" name="LMP2LT"> F  </i>
   <i type="logical" name="LSMP2LT"> F  </i>
   <i type="logical" name="LGWLF"> F  </i>
   <i name="ENCUTGW">     -2.00000000</i>
   <i name="ENCUTGWSOFT">     -2.00000000</i>
   <i name="ENCUTLF">     -1.00000000</i>
   <i type="logical" name="LESF_SPLINES"> F  </i>
   <i type="int" name="LMAXMP2">    -1</i>
   <i name="SCISSOR">      0.00000000</i>
   <i type="int" name="NOMEGA">     0</i>
   <i type="int" name="NOMEGAR">     0</i>
   <i type="int" name="NBANDSGW">    -1</i>
   <i type="int" name="NBANDSO">    -1</i>
   <i type="int" name="NBANDSV">    -1</i>
   <i type="int" name="NELMGW">     1</i>
   <i type="int" name="NELMHF">     1</i>
   <i type="int" name="DIM">     3</i>
   <i type="int" name="IESPILON">     4</i>
   <i type="int" name="ANTIRES">     0</i>
   <i name="OMEGAMAX">    -30.00000000</i>
   <i name="OMEGAMIN">    -30.00000000</i>
   <i name="OMEGATL">   -200.00000000</i>
   <i type="int" name="OMEGAGRID">     0</i>
   <i name="CSHIFT">     -0.10000000</i>
   <i type="logical" name="LSELFENERGY"> F  </i>
   <i type="logical" name="LSPECTRAL"> F  </i>
   <i type="logical" name="LSPECTRALGW"> F  </i>
   <i type="logical" name="LSINGLES"> F  </i>
   <i type="logical" name="LFERMIGW"> F  </i>
   <i type="logical" name="ODDONLYGW"> F  </i>
   <i type="logical" name="EVENONLYGW"> F  </i>
   <i type="int" name="NKREDLFX">     1</i>
   <i type="int" name="NKREDLFY">     1</i>
   <i type="int" name="NKREDLFZ">     1</i>
   <i type="int" name="MAXMEM">  2800</i>
   <i type="int" name="TELESCOPE">     0</i>
   <i type="int" name="NTAUPAR">    -1</i>
   <i type="int" name="NOMEGAPAR">    -1</i>
   <i name="DAMP_NEWTON">      0.80000001</i>
   <i name="LAMBDA">      1.00000000</i>
  </separator>
  <separator name="External order field" >
   <i name="OFIELD_KAPPA">      0.00000000</i>
   <v name="OFIELD_K">      0.00000000      0.00000000      0.00000000</v>
   <i name="OFIELD_Q6_NEAR">      0.00000000</i>
   <i name="OFIELD_Q6_FAR">      0.00000000</i>
   <i name="OFIELD_A">      0.00000000</i>
  </separator>
  <separator name="optional k-points parameters" >
   <i type="int" name="KPOINTS_OPT_MODE">     1</i>
   <i type="logical" name="LKPOINTS_OPT"> F  </i>
  </separator>
 </parameters>
 <atominfo>
  <atoms>      66 </atoms>
  <types>       2 </types>
  <array name="atoms" >
   <dimension dim="1">ion</dimension>
   <field type="string">element</field>
   <field type="int">atomtype</field>
   <set>
    <rc><c>Cu</c><c>   1</c></rc>
    <rc><c>Cu</c><c>   1</c></rc>
    <rc><c>Cu</c><c>   1</c></rc>
    <rc><c>Cu</c><c>   1</c></rc>
    <rc><c>Cu</c><c>   1</c></rc>
    <rc><c>Cu</c><c>   1</c></rc>
    <rc><c>Cu</c><c>   1</c></rc>
    <rc><c>Cu</c><c>   1</c></rc>
    <rc><c>Cu</c><c>   1</c></rc>
    <rc><c>Cu</c><c>   1</c></rc>
    <rc><c>Cu</c><c>   1</c></rc>
    <rc><c>Cu</c><c>   1</c></rc>
    <rc><c>Cu</c><c>   1</c></rc>
    <rc><c>Cu</c><c>   1</c></rc>
    <rc><c>Cu</c><c>   1</c></rc>
    <rc><c>Cu</c><c>   1</c></rc>
    <rc><c>Cu</c><c>   1</c></rc>
    <rc><c>Cu</c><c>   1</c></rc>
    <rc><c>Cu</c><c>   1</c></rc>
    <rc><c>Cu</c><c>   1</c></rc>
    <rc><c>Cu</c><c>   1</c></rc>
    <rc><c>Cu</c><c>   1</c></rc>
    <rc><c>Cu</c><c>   1</c></rc>
    <rc><c>Cu</c><c>   1</c></rc>
    <rc><c>Cu</c><c>   1</c></rc>
    <rc><c>Cu</c><c>   1</c></rc>
    <rc><c>Cu</c><c>   1</c></rc>
    <rc><c>Cu</c><c>   1</c></rc>
    <rc><c>Cu</c><c>   1</c></rc>
    <rc><c>Cu</c><c>   1</c></rc>
    <rc><c>Cu</c><c>   1</c></rc>
    <rc><c>Cu</c><c>   1</c></rc>
    <rc><c>Cu</c><c>   1</c></rc>
    <rc><c>Cu</c><c>   1</c></rc>
    <rc><c>Cu</c><c>   1</c></rc>
    <rc><c>Cu</c><c>   1</c></rc>
    <rc><c>Cu</c><c>   1</c></rc>
    <rc><c>Cu</c><c>   1</c></rc>
    <rc><c>Cu</c><c>   1</c></rc>
    <rc><c>Cu</c><c>   1</c></rc>
    <rc><c>Cu</c><c>   1</c></rc>
    <rc><c>Cu</c><c>   1</c></rc>
    <rc><c>Cu</c><c>   1</c></rc>
    <rc><c>Cu</c><c>   1</c></rc>
    <rc><c>Cu</c><c>   1</c></rc>
    <rc><c>Cu</c><c>   1</c></rc>
    <rc><c>Cu</c><c>   1</c></rc>
    <rc><c>Cu</c><c>   1</c></rc>
    <rc><c>Cu</c><c>   1</c></rc>
    <rc><c>Cu</c><c>   1</c></rc>
    <rc><c>Cu</c><c>   1</c></rc>
    <rc><c>Cu</c><c>   1</c></rc>
    <rc><c>Cu</c><c>   1</c></rc>
    <rc><c>Cu</c><c>   1</c></rc>
    <rc><c>Cu</c><c>   1</c></rc>
    <rc><c>Cu</c><c>   1</c></rc>
    <rc><c>Cu</c><c>   1</c></rc>
    <rc><c>Cu</c><c>   1</c></rc>
    <rc><c>Cu</c><c>   1</c></rc>
    <rc><c>Cu</c><c>   1</c></rc>
    <rc><c>Cu</c><c>   1</c></rc>
    <rc><c>Cu</c><c>   1</c></rc>
    <rc><c>Cu</c><c>   1</c></rc>
    <rc><c>Cu</c><c>   1</c></rc>
    <rc><c>H </c><c>   2</c></rc>
    <rc><c>H </c><c>   2</c></rc>
   </set>
  </array>
  <array name="atomtypes" >
   <dimension dim="1">type</dimension>
   <field type="int">atomspertype</field>
   <field type="string">element</field>
   <field>mass</field>
   <field>valence</field>
   <field type="string">pseudopotential</field>
   <set>
    <rc><c>  64</c><c>Cu</c><c>     63.54600000</c><c>     11.00000000</c><c>  PAW_PBE Cu 22Jun2005                  </c></rc>
    <rc><c>   2</c><c>H </c><c>      1.00000000</c><c>      1.00000000</c><c>  PAW_PBE H 15Jun2001                   </c></rc>
   </set>
  </array>
 </atominfo>
 <structure name="initialpos" >
  <crystal>
   <varray name="basis" >
    <v>       7.26000023       0.00000000       0.00000000 </v>
    <v>       0.00000000       7.26000023       0.00000000 </v>
    <v>       0.00000000       0.00000000      27.70499992 </v>
   </varray>
   <i name="volume">   1460.26414606 </i>
   <varray name="rec_basis" >
    <v>       0.13774104       0.00000000       0.00000000 </v>
    <v>       0.00000000       0.13774104       0.00000000 </v>
    <v>       0.00000000       0.00000000       0.03609457 </v>
   </varray>
  </crystal>
  <varray name="positions" >
   <v>       0.00000000       0.00000000       0.00000000 </v>
   <v>       0.00000000       0.50000000       0.00000000 </v>
   <v>       0.50000000       0.00000000       0.00000000 </v>
   <v>       0.50000000       0.50000000       0.00000000 </v>
   <v>       0.25000000       0.25000000       0.00000000 </v>
   <v>       0.25000000       0.75000000       0.00000000 </v>
   <v>       0.75000000       0.25000000       0.00000000 </v>
   <v>       0.75000000       0.75000000       0.00000000 </v>
   <v>       0.00000000       0.25000000       0.06551164 </v>
   <v>       0.00000000       0.75000000       0.06551164 </v>
   <v>       0.50000000       0.25000000       0.06551164 </v>
   <v>       0.50000000       0.75000000       0.06551164 </v>
   <v>       0.25000000       0.00000000       0.06551164 </v>
   <v>       0.25000000       0.50000000       0.06551164 </v>
   <v>       0.75000000       0.00000000       0.06551164 </v>
   <v>       0.75000000       0.50000000       0.06551164 </v>
   <v>       0.00000000       0.00000000       0.13164128 </v>
   <v>       0.00000000       0.50000000       0.13164128 </v>
   <v>       0.50000000       0.00000000       0.13164128 </v>
   <v>       0.50000000       0.50000000       0.13164128 </v>
   <v>       0.25000000       0.25000000       0.13164128 </v>
   <v>       0.25000000       0.75000000       0.13164128 </v>
   <v>       0.75000000       0.25000000       0.13164128 </v>
   <v>       0.75000000       0.75000000       0.13164128 </v>
   <v>       0.00000000       0.25000000       0.19677891 </v>
   <v>       0.00000000       0.75000000       0.19677891 </v>
   <v>       0.50000000       0.25000000       0.19677891 </v>
   <v>       0.50000000       0.75000000       0.19677891 </v>
   <v>       0.25000000       0.00000000       0.19677891 </v>
   <v>       0.25000000       0.50000000       0.19677891 </v>
   <v>       0.75000000       0.00000000       0.19677891 </v>
   <v>       0.75000000       0.50000000       0.19677891 </v>
   <v>       0.00000000       0.00000000       0.26184662 </v>
   <v>       0.00000000       0.50000000       0.26184662 </v>
   <v>       0.50000000       0.00000000       0.26184662 </v>
   <v>       0.50000000       0.50000000       0.26184662 </v>
   <v>       0.25000000       0.25000000       0.26184662 </v>
   <v>       0.25000000       0.75000000       0.26184662 </v>
   <v>       0.75000000       0.25000000       0.26184662 </v>
   <v>       0.75000000       0.75000000       0.26184662 </v>
   <v>       0.00000000       0.25000000       0.32758887 </v>
   <v>       0.00000000       0.75000000       0.32758887 </v>
   <v>       0.50000000       0.25000000       0.32758887 </v>
   <v>       0.50000000       0.75000000       0.32758887 </v>
   <v>       0.25000000       0.00000000       0.32758887 </v>
   <v>       0.25000000       0.50000000       0.32758887 </v>
   <v>       0.75000000       0.00000000       0.32758887 </v>
   <v>       0.75000000       0.50000000       0.32758887 </v>
   <v>       0.00000000       0.00000000       0.39185763 </v>
   <v>       0.00000000       0.50000000       0.39185763 </v>
   <v>       0.50000000       0.00000000       0.39185763 </v>
   <v>       0.50000000       0.50000000       0.39185763 </v>
   <v>       0.25000000       0.25000000       0.39185763 </v>
   <v>       0.25000000       0.75000000       0.39185763 </v>
   <v>       0.75000000       0.25000000       0.39185763 </v>
   <v>       0.75000000       0.75000000       0.39185763 </v>
   <v>       0.00000000       0.25000000       0.45475490 </v>
   <v>       0.00000000       0.75000000       0.45475490 </v>
   <v>       0.50000000       0.25000000       0.45475490 </v>
   <v>       0.50000000       0.75000000       0.45475490 </v>
   <v>       0.25000000       0.00000000       0.45475490 </v>
   <v>       0.25000000       0.50000000       0.45475490 </v>
   <v>       0.75000000       0.00000000       0.45475490 </v>
   <v>       0.75000000       0.50000000       0.45475490 </v>
   <v>       0.50000000       0.75000000       0.50150658 </v>
   <v>       0.50000000       0.82265863       0.52054652 </v>
  </varray>
 </structure>
 <calculation>
  <scstep>
   <time name="dav">   46.00   46.33</time>
   <time name="total">   46.14   46.47</time>
   <energy>
    <i name="alphaZ">   2059.53800561 </i>
    <i name="ewald"> 387569.12882041 </i>
    <i name="hartreedc">-475081.49285373 </i>
    <i name="XCdc">   2933.17374232 </i>
    <i name="pawpsdc">  78601.82840687 </i>
    <i name="pawaedc"> -85374.54502045 </i>
    <i name="eentropy">     -0.01360493 </i>
    <i name="bandstr">   7099.91811589 </i>
    <i name="atom">  89046.24623812 </i>
    <i name="e_fr_energy">   6853.78185010 </i>
    <i name="e_wo_entrp">   6853.79545503 </i>
    <i name="e_0_energy">   6853.78638508 </i>
   </energy>
  </scstep>
  <scstep>
   <time name="dav">   46.04   46.38</time>
   <time name="total">   46.04   46.38</time>
   <energy>
    <i name="e_fr_energy">    963.40441302 </i>
    <i name="e_wo_entrp">    963.39904169 </i>
    <i name="e_0_energy">    963.40262258 </i>
   </energy>
  </scstep>
  <scstep>
   <time name="dav">   47.23   47.60</time>
   <time name="total">   47.24   47.61</time>
   <energy>
    <i name="e_fr_energy">   -179.49892584 </i>
    <i name="e_wo_entrp">   -179.58313780 </i>
    <i name="e_0_energy">   -179.52699650 </i>
   </energy>
  </scstep>
  <scstep>
   <time name="dav">   49.86   50.22</time>
   <time name="total">   49.87   50.23</time>
   <energy>
    <i name="e_fr_energy">   -271.56623273 </i>
    <i name="e_wo_entrp">   -271.69004546 </i>
    <i name="e_0_energy">   -271.60750364 </i>
   </energy>
  </scstep>
  <scstep>
   <time name="dav">   50.07   50.43</time>
   <time name="total">   50.96   51.32</time>
   <energy>
    <i name="e_fr_energy">   -273.94182712 </i>
    <i name="e_wo_entrp">   -274.06817979 </i>
    <i name="e_0_energy">   -273.98394467 </i>
   </energy>
  </scstep>
  <scstep>
   <time name="dav">   49.99   50.46</time>
   <time name="total">   50.99   51.47</time>
   <energy>
    <i name="e_fr_energy">   -223.38646342 </i>
    <i name="e_wo_entrp">   -223.40605373 </i>
    <i name="e_0_energy">   -223.39299352 </i>
   </energy>
  </scstep>
  <scstep>
   <time name="dav">   49.20   49.51</time>
   <time name="total">   50.16   50.48</time>
   <energy>
    <i name="e_fr_energy">   -196.86446931 </i>
    <i name="e_wo_entrp">   -196.94663576 </i>
    <i name="e_0_energy">   -196.89185813 </i>
   </energy>
  </scstep>
  <scstep>
   <time name="dav">   52.36   52.77</time>
   <time name="total">   53.32   53.74</time>
   <energy>
    <i name="e_fr_energy">   -197.62600740 </i>
    <i name="e_wo_entrp">   -197.64743832 </i>
    <i name="e_0_energy">   -197.63315104 </i>
   </energy>
  </scstep>
  <scstep>
   <time name="dav">   59.55   60.03</time>
   <time name="total">   60.52   61.01</time>
   <energy>
    <i name="e_fr_energy">   -194.52706516 </i>
    <i name="e_wo_entrp">   -194.59885195 </i>
    <i name="e_0_energy">   -194.55099409 </i>
   </energy>
  </scstep>
  <scstep>
   <time name="dav">   62.70   63.11</time>
   <time name="total">   63.70   64.11</time>
   <energy>
    <i name="e_fr_energy">   -193.32349042 </i>
    <i name="e_wo_entrp">   -193.39458001 </i>
    <i name="e_0_energy">   -193.34718695 </i>
   </energy>
  </scstep>
  <scstep>
   <time name="dav">   68.53   69.01</time>
   <time name="total">   70.32   70.83</time>
   <energy>
    <i name="e_fr_energy">   -194.84464537 </i>
    <i name="e_wo_entrp">   -194.89668908 </i>
    <i name="e_0_energy">   -194.86199327 </i>
   </energy>
  </scstep>
  <scstep>
   <time name="dav">   50.61   50.96</time>
   <time name="total">   51.59   51.96</time>
   <energy>
    <i name="e_fr_energy">   -201.31136416 </i>
    <i name="e_wo_entrp">   -201.34776671 </i>
    <i name="e_0_energy">   -201.32349834 </i>
   </energy>
  </scstep>
  <scstep>
   <time name="dav">   53.87   54.24</time>
   <time name="total">   54.86   55.23</time>
   <energy>
    <i name="e_fr_energy">   -204.26352785 </i>
    <i name="e_wo_entrp">   -204.28271331 </i>
    <i name="e_0_energy">   -204.26992300 </i>
   </energy>
  </scstep>
  <scstep>
   <time name="dav">   52.27   52.85</time>
   <time name="total">   53.24   53.83</time>
   <energy>
    <i name="e_fr_energy">   -211.04791539 </i>
    <i name="e_wo_entrp">   -211.07026702 </i>
    <i name="e_0_energy">   -211.05536593 </i>
   </energy>
  </scstep>
  <scstep>
   <time name="dav">   55.45   55.81</time>
   <time name="total">   56.45   56.82</time>
   <energy>
    <i name="e_fr_energy">   -216.27689904 </i>
    <i name="e_wo_entrp">   -216.29993525 </i>
    <i name="e_0_energy">   -216.28457778 </i>
   </energy>
  </scstep>
  <scstep>
   <time name="dav">   51.46   51.84</time>
   <time name="total">   52.43   52.82</time>
   <energy>
    <i name="e_fr_energy">   -223.14795974 </i>
    <i name="e_wo_entrp">   -223.12628087 </i>
    <i name="e_0_energy">   -223.14073345 </i>
   </energy>
  </scstep>
  <scstep>
   <time name="dav">   53.25   53.71</time>
   <time name="total">   54.22   54.69</time>
   <energy>
    <i name="e_fr_energy">   -225.23196224 </i>
    <i name="e_wo_entrp">   -225.19133188 </i>
    <i name="e_0_energy">   -225.21841879 </i>
   </energy>
  </scstep>
  <scstep>
   <time name="dav">   48.39   48.75</time>
   <time name="total">   49.36   49.73</time>
   <energy>
    <i name="e_fr_energy">   -226.31419857 </i>
    <i name="e_wo_entrp">   -226.25318484 </i>
    <i name="e_0_energy">   -226.29386066 </i>
   </energy>
  </scstep>
  <scstep>
   <time name="dav">   57.33   57.84</time>
   <time name="total">   58.32   58.84</time>
   <energy>
    <i name="e_fr_energy">   -228.25635830 </i>
    <i name="e_wo_entrp">   -228.15386068 </i>
    <i name="e_0_energy">   -228.22219242 </i>
   </energy>
  </scstep>
  <scstep>
   <time name="dav">   52.40   52.86</time>
   <time name="total">   53.37   53.84</time>
   <energy>
    <i name="e_fr_energy">   -229.68875072 </i>
    <i name="e_wo_entrp">   -229.56074615 </i>
    <i name="e_0_energy">   -229.64608253 </i>
   </energy>
  </scstep>
  <scstep>
   <time name="dav">   58.25   58.63</time>
   <time name="total">   59.23   59.61</time>
   <energy>
    <i name="e_fr_energy">   -231.22072197 </i>
    <i name="e_wo_entrp">   -231.05795550 </i>
    <i name="e_0_energy">   -231.16646648 </i>
   </energy>
  </scstep>
  <scstep>
   <time name="dav">   57.50   57.87</time>
   <time name="total">   58.49   58.88</time>
   <energy>
    <i name="e_fr_energy">   -232.03392625 </i>
    <i name="e_wo_entrp">   -231.85326680 </i>
    <i name="e_0_energy">   -231.97370643 </i>
   </energy>
  </scstep>
  <scstep>
   <time name="dav">   55.99   56.38</time>
   <time name="total">   56.97   57.37</time>
   <energy>
    <i name="e_fr_energy">   -232.76563763 </i>
    <i name="e_wo_entrp">   -232.57840005 </i>
    <i name="e_0_energy">   -232.70322510 </i>
   </energy>
  </scstep>
  <scstep>
   <time name="dav">   54.58   54.95</time>
   <time name="total">   55.57   55.95</time>
   <energy>
    <i name="e_fr_energy">   -233.20910626 </i>
    <i name="e_wo_entrp">   -233.01940187 </i>
    <i name="e_0_energy">   -233.14587146 </i>
   </energy>
  </scstep>
  <scstep>
   <time name="dav">   54.44   54.88</time>
   <time name="total">   55.41   55.85</time>
   <energy>
    <i name="e_fr_energy">   -233.46186038 </i>
    <i name="e_wo_entrp">   -233.27379217 </i>
    <i name="e_0_energy">   -233.39917098 </i>
   </energy>
  </scstep>
  <scstep>
   <time name="dav">   54.40   54.75</time>
   <time name="total">   55.39   55.75</time>
   <energy>
    <i name="e_fr_energy">   -233.72883539 </i>
    <i name="e_wo_entrp">   -233.53992430 </i>
    <i name="e_0_energy">   -233.66586503 </i>
   </energy>
  </scstep>
  <scstep>
   <time name="dav">   58.06   58.43</time>
   <time name="total">   59.03   59.41</time>
   <energy>
    <i name="e_fr_energy">   -233.99031654 </i>
    <i name="e_wo_entrp">   -233.80105818 </i>
    <i name="e_0_energy">   -233.92723042 </i>
   </energy>
  </scstep>
  <scstep>
   <time name="dav">   59.40   60.04</time>
   <time name="total">   60.42   61.07</time>
   <energy>
    <i name="e_fr_energy">   -234.09099280 </i>
    <i name="e_wo_entrp">   -233.90288236 </i>
    <i name="e_0_energy">   -234.02828932 </i>
   </energy>
  </scstep>
  <scstep>
   <time name="dav">   46.29   46.63</time>
   <time name="total">   47.27   47.61</time>
   <energy>
    <i name="e_fr_energy">   -234.15466034 </i>
    <i name="e_wo_entrp">   -233.96645786 </i>
    <i name="e_0_energy">   -234.09192618 </i>
   </energy>
  </scstep>
  <scstep>
   <time name="dav">   42.69   43.15</time>
   <time name="total">   43.67   44.13</time>
   <energy>
    <i name="e_fr_energy">   -234.17524463 </i>
    <i name="e_wo_entrp">   -233.98686896 </i>
    <i name="e_0_energy">   -234.11245274 </i>
   </energy>
  </scstep>
  <scstep>
   <time name="dav">   36.29   36.68</time>
   <time name="total">   37.27   37.67</time>
   <energy>
    <i name="e_fr_energy">   -234.17937672 </i>
    <i name="e_wo_entrp">   -233.99116034 </i>
    <i name="e_0_energy">   -234.11663793 </i>
   </energy>
  </scstep>
  <scstep>
   <time name="dav">   34.18   34.42</time>
   <time name="total">   35.15   35.40</time>
   <energy>
    <i name="e_fr_energy">   -234.18038657 </i>
    <i name="e_wo_entrp">   -233.99218417 </i>
    <i name="e_0_energy">   -234.11765244 </i>
   </energy>
  </scstep>
  <scstep>
   <time name="dav">   34.30   34.58</time>
   <time name="total">   35.27   35.56</time>
   <energy>
    <i name="e_fr_energy">   -234.18082113 </i>
    <i name="e_wo_entrp">   -233.99251037 </i>
    <i name="e_0_energy">   -234.11805088 </i>
   </energy>
  </scstep>
  <scstep>
   <time name="dav">   33.65   33.88</time>
   <time name="total">   34.63   34.87</time>
   <energy>
    <i name="e_fr_energy">   -234.18135249 </i>
    <i name="e_wo_entrp">   -233.99303953 </i>
    <i name="e_0_energy">   -234.11858150 </i>
   </energy>
  </scstep>
  <scstep>
   <time name="dav">   33.45   33.70</time>
   <time name="total">   34.44   34.69</time>
   <energy>
    <i name="e_fr_energy">   -234.18181867 </i>
    <i name="e_wo_entrp">   -233.99353686 </i>
    <i name="e_0_energy">   -234.11905806 </i>
   </energy>
  </scstep>
  <scstep>
   <time name="dav">   34.13   34.46</time>
   <time name="total">   35.10   35.43</time>
   <energy>
    <i name="e_fr_energy">   -234.18238974 </i>
    <i name="e_wo_entrp">   -233.99408324 </i>
    <i name="e_0_energy">   -234.11962091 </i>
   </energy>
  </scstep>
  <scstep>
   <time name="dav">   33.89   34.12</time>
   <time name="total">   34.88   35.12</time>
   <energy>
    <i name="e_fr_energy">   -234.18306026 </i>
    <i name="e_wo_entrp">   -233.99470146 </i>
    <i name="e_0_energy">   -234.12027400 </i>
   </energy>
  </scstep>
  <scstep>
   <time name="dav">   34.42   34.75</time>
   <time name="total">   35.39   35.74</time>
   <energy>
    <i name="e_fr_energy">   -234.18334747 </i>
    <i name="e_wo_entrp">   -233.99500479 </i>
    <i name="e_0_energy">   -234.12056657 </i>
   </energy>
  </scstep>
  <scstep>
   <time name="dav">   33.76   33.99</time>
   <time name="total">   33.89   34.13</time>
   <energy>
    <i name="alphaZ">   2059.53800561 </i>
    <i name="ewald"> 387569.12882041 </i>
    <i name="hartreedc">-474125.90599198 </i>
    <i name="XCdc">   2859.08544863 </i>
    <i name="pawpsdc">  83766.63785761 </i>
    <i name="pawaedc"> -90660.22397107 </i>
    <i name="eentropy">     -0.18834478 </i>
    <i name="bandstr">   -748.50149469 </i>
    <i name="atom">  89046.24623812 </i>
    <i name="e_fr_energy">   -234.18343214 </i>
    <i name="e_wo_entrp">   -233.99508737 </i>
    <i name="e_0_energy">   -234.12065055 </i>
   </energy>
  </scstep>
  <structure>
   <crystal>
    <varray name="basis" >
     <v>       7.26000023       0.00000000       0.00000000 </v>
     <v>       0.00000000       7.26000023       0.00000000 </v>
     <v>       0.00000000       0.00000000      27.70499992 </v>
    </varray>
    <i name="volume">   1460.26414606 </i>
    <varray name="rec_basis" >
     <v>       0.13774104       0.00000000       0.00000000 </v>
     <v>       0.00000000       0.13774104       0.00000000 </v>
     <v>       0.00000000       0.00000000       0.03609457 </v>
    </varray>
   </crystal>
   <varray name="positions" >
    <v>       0.00000000       0.00000000       0.00000000 </v>
    <v>       0.00000000       0.50000000       0.00000000 </v>
    <v>       0.50000000       0.00000000       0.00000000 </v>
    <v>       0.50000000       0.50000000       0.00000000 </v>
    <v>       0.25000000       0.25000000       0.00000000 </v>
    <v>       0.25000000       0.75000000       0.00000000 </v>
    <v>       0.75000000       0.25000000       0.00000000 </v>
    <v>       0.75000000       0.75000000       0.00000000 </v>
    <v>       0.00000000       0.25000000       0.06551164 </v>
    <v>       0.00000000       0.75000000       0.06551164 </v>
    <v>       0.50000000       0.25000000       0.06551164 </v>
    <v>       0.50000000       0.75000000       0.06551164 </v>
    <v>       0.25000000       0.00000000       0.06551164 </v>
    <v>       0.25000000       0.50000000       0.06551164 </v>
    <v>       0.75000000       0.00000000       0.06551164 </v>
    <v>       0.75000000       0.50000000       0.06551164 </v>
    <v>       0.00000000       0.00000000       0.13164128 </v>
    <v>       0.00000000       0.50000000       0.13164128 </v>
    <v>       0.50000000       0.00000000       0.13164128 </v>
    <v>       0.50000000       0.50000000       0.13164128 </v>
    <v>       0.25000000       0.25000000       0.13164128 </v>
    <v>       0.25000000       0.75000000       0.13164128 </v>
    <v>       0.75000000       0.25000000       0.13164128 </v>
    <v>       0.75000000       0.75000000       0.13164128 </v>
    <v>       0.00000000       0.25000000       0.19677891 </v>
    <v>       0.00000000       0.75000000       0.19677891 </v>
    <v>       0.50000000       0.25000000       0.19677891 </v>
    <v>       0.50000000       0.75000000       0.19677891 </v>
    <v>       0.25000000       0.00000000       0.19677891 </v>
    <v>       0.25000000       0.50000000       0.19677891 </v>
    <v>       0.75000000       0.00000000       0.19677891 </v>
    <v>       0.75000000       0.50000000       0.19677891 </v>
    <v>       0.00000000       0.00000000       0.26184662 </v>
    <v>       0.00000000       0.50000000       0.26184662 </v>
    <v>       0.50000000       0.00000000       0.26184662 </v>
    <v>       0.50000000       0.50000000       0.26184662 </v>
    <v>       0.25000000       0.25000000       0.26184662 </v>
    <v>       0.25000000       0.75000000       0.26184662 </v>
    <v>       0.75000000       0.25000000       0.26184662 </v>
    <v>       0.75000000       0.75000000       0.26184662 </v>
    <v>       0.00000000       0.25000000       0.32758887 </v>
    <v>       0.00000000       0.75000000       0.32758887 </v>
    <v>       0.50000000       0.25000000       0.32758887 </v>
    <v>       0.50000000       0.75000000       0.32758887 </v>
    <v>       0.25000000       0.00000000       0.32758887 </v>
    <v>       0.25000000       0.50000000       0.32758887 </v>
    <v>       0.75000000       0.00000000       0.32758887 </v>
    <v>       0.75000000       0.50000000       0.32758887 </v>
    <v>       0.00000000       0.00000000       0.39185763 </v>
    <v>       0.00000000       0.50000000       0.39185763 </v>
    <v>       0.50000000       0.00000000       0.39185763 </v>
    <v>       0.50000000       0.50000000       0.39185763 </v>
    <v>       0.25000000       0.25000000       0.39185763 </v>
    <v>       0.25000000       0.75000000       0.39185763 </v>
    <v>       0.75000000       0.25000000       0.39185763 </v>
    <v>       0.75000000       0.75000000       0.39185763 </v>
    <v>       0.00000000       0.25000000       0.45475490 </v>
    <v>       0.00000000       0.75000000       0.45475490 </v>
    <v>       0.50000000       0.25000000       0.45475490 </v>
    <v>       0.50000000       0.75000000       0.45475490 </v>
    <v>       0.25000000       0.00000000       0.45475490 </v>
    <v>       0.25000000       0.50000000       0.45475490 </v>
    <v>       0.75000000       0.00000000       0.45475490 </v>
    <v>       0.75000000       0.50000000       0.45475490 </v>
    <v>       0.50000000       0.75000000       0.50150658 </v>
    <v>       0.50000000       0.82265863       0.52054652 </v>
   </varray>
  </structure>
  <varray name="forces" >
   <v>       0.00000000      -0.01680121       0.31596362 </v>
   <v>       0.00000000       0.01455627       0.31135923 </v>
   <v>       0.00000000       0.01984912       0.31754735 </v>
   <v>       0.00000000      -0.01520179       0.31816639 </v>
   <v>       0.01732635      -0.00259291       0.31312806 </v>
   <v>      -0.01597492       0.00146298       0.31922907 </v>
   <v>      -0.01732635      -0.00259291       0.31312806 </v>
   <v>       0.01597492       0.00146298       0.31922907 </v>
   <v>       0.00000000      -0.00199331      -0.06285574 </v>
   <v>       0.00000000       0.00122112      -0.06725829 </v>
   <v>       0.00000000      -0.00469281      -0.06687931 </v>
   <v>       0.00000000      -0.01279325      -0.04359962 </v>
   <v>       0.00100382       0.00053611      -0.07023998 </v>
   <v>       0.00675179       0.00862628      -0.06805285 </v>
   <v>      -0.00100382       0.00053611      -0.07023998 </v>
   <v>      -0.00675179       0.00862628      -0.06805285 </v>
   <v>       0.00000000      -0.01161654      -0.05271627 </v>
   <v>       0.00000000       0.01834491      -0.05079211 </v>
   <v>       0.00000000       0.01195323      -0.06413670 </v>
   <v>       0.00000000      -0.00086095      -0.05817506 </v>
   <v>       0.01594183      -0.00705784      -0.05147296 </v>
   <v>      -0.00514599      -0.00184397      -0.06098064 </v>
   <v>      -0.01594183      -0.00705784      -0.05147296 </v>
   <v>       0.00514599      -0.00184397      -0.06098064 </v>
   <v>       0.00000000      -0.00218662       0.01694462 </v>
   <v>       0.00000000       0.00259911       0.07288287 </v>
   <v>       0.00000000      -0.00382283       0.07255273 </v>
   <v>       0.00000000      -0.00208668       0.02032132 </v>
   <v>       0.01427339      -0.01270556       0.01944793 </v>
   <v>       0.01552419       0.01552000       0.02719692 </v>
   <v>      -0.01427339      -0.01270556       0.01944793 </v>
   <v>      -0.01552419       0.01552000       0.02719692 </v>
   <v>       0.00000000       0.01157124      -0.01239845 </v>
   <v>       0.00000000      -0.00887975       0.00059672 </v>
   <v>       0.00000000       0.00498663       0.05146326 </v>
   <v>       0.00000000       0.01208160       0.02659825 </v>
   <v>      -0.00960699      -0.00459826      -0.00820609 </v>
   <v>       0.00418155      -0.00523950       0.03862966 </v>
   <v>       0.00960699      -0.00459826      -0.00820609 </v>
   <v>      -0.00418155      -0.00523950       0.03862966 </v>
   <v>       0.00000000       0.00340670      -0.16730173 </v>
   <v>       0.00000000       0.00079660      -0.21832051 </v>
   <v>       0.00000000       0.02167104      -0.21189789 </v>
   <v>       0.00000000       0.00240118      -0.17510673 </v>
   <v>      -0.01643757       0.00486507      -0.22187650 </v>
   <v>      -0.00908193      -0.01836485      -0.21759462 </v>
   <v>       0.01643757       0.00486507      -0.22187650 </v>
   <v>       0.00908193      -0.01836485      -0.21759462 </v>
   <v>       0.00000000      -0.02003983       0.00806224 </v>
   <v>       0.00000000       0.00946657      -0.00180413 </v>
   <v>       0.00000000       0.06374680      -0.11282201 </v>
   <v>       0.00000000       0.04279183       0.00736162 </v>
   <v>       0.01484754      -0.02265610       0.00037449 </v>
   <v>      -0.01371673      -0.00258231      -0.05445066 </v>
   <v>      -0.01484754      -0.02265610       0.00037449 </v>
   <v>       0.01371673      -0.00258231      -0.05445066 </v>
   <v>       0.00000000      -0.00146026      -0.01060806 </v>
   <v>       0.00000000       0.00414222      -0.06613758 </v>
   <v>       0.00000000       0.03853307      -0.05588506 </v>
   <v>       0.00000000       0.12269437      -5.02524500 </v>
   <v>      -0.16447418       0.14286836      -0.12621685 </v>
   <v>      -0.05014355      -0.07670488      -0.07168091 </v>
   <v>       0.16447418       0.14286836      -0.12621685 </v>
   <v>       0.05014355      -0.07670488      -0.07168091 </v>
   <v>       0.00000000      -1.74248151       4.50249484 </v>
   <v>       0.00000000       1.39903851       0.94715706 </v>
  </varray>
  <varray name="stress" >
   <v>     -45.03532951       0.00000000       0.00000000 </v>
   <v>       0.00000000     -44.13184058       0.21303886 </v>
   <v>       0.00000000       0.21303888     -17.40130520 </v>
  </varray>
  <energy>
   <i name="e_fr_energy">   -260.64770699 </i>
   <i name="e_wo_entrp">   -260.45936222 </i>
   <i name="e_0_energy">   -260.58492540 </i>
  </energy>
  <time name="totalsc"> 2042.08 2057.83</time>
 </calculation>
 <calculation>
  <scstep>
   <time name="dav">   49.35   49.68</time>
   <time name="total">   50.33   50.67</time>
   <energy>
    <i name="alphaZ">   2059.53800561 </i>
    <i name="ewald"> 389629.54767429 </i>
    <i name="hartreedc">-476190.29860817 </i>
    <i name="XCdc">   2859.29036624 </i>
    <i name="pawpsdc">  83766.63714101 </i>
    <i name="pawaedc"> -90660.22255320 </i>
    <i name="eentropy">     -0.19884311 </i>
    <i name="bandstr">   -743.84578209 </i>
    <i name="atom">  89046.24623812 </i>
    <i name="e_fr_energy">   -233.30636132 </i>
    <i name="e_wo_entrp">   -233.10751820 </i>
    <i name="e_0_energy">   -233.24008028 </i>
   </energy>
  </scstep>
  <scstep>
   <time name="dav">   61.78   62.48</time>
   <time name="total">   62.76   63.47</time>
   <energy>
    <i name="e_fr_energy">   -234.96755441 </i>
    <i name="e_wo_entrp">   -234.76342691 </i>
    <i name="e_0_energy">   -234.89951191 </i>
   </energy>
  </scstep>
  <scstep>
   <time name="dav">   48.69   49.04</time>
   <time name="total">   50.26   50.72</time>
   <energy>
    <i name="e_fr_energy">   -235.00596869 </i>
    <i name="e_wo_entrp">   -234.80698761 </i>
    <i name="e_0_energy">   -234.93964166 </i>
   </energy>
  </scstep>
  <scstep>
   <time name="dav">   51.79   52.36</time>
   <time name="total">   52.77   53.34</time>
   <energy>
    <i name="e_fr_energy">   -235.00669277 </i>
    <i name="e_wo_entrp">   -234.80384448 </i>
    <i name="e_0_energy">   -234.93907668 </i>
   </energy>
  </scstep>
  <scstep>
   <time name="dav">   53.97   54.33</time>
   <time name="total">   54.96   55.33</time>
   <energy>
    <i name="e_fr_energy">   -235.05408149 </i>
    <i name="e_wo_entrp">   -234.87097300 </i>
    <i name="e_0_energy">   -234.99304532 </i>
   </energy>
  </scstep>
  <scstep>
   <time name="dav">   55.66   56.00</time>
   <time name="total">   56.63   56.98</time>
   <energy>
    <i name="e_fr_energy">   -235.02609040 </i>
    <i name="e_wo_entrp">   -234.82554236 </i>
    <i name="e_0_energy">   -234.95924106 </i>
   </energy>
  </scstep>
  <scstep>
   <time name="dav">   72.56   73.09</time>
   <time name="total">   73.56   74.11</time>
   <energy>
    <i name="e_fr_energy">   -234.98681285 </i>
    <i name="e_wo_entrp">   -234.78840055 </i>
    <i name="e_0_energy">   -234.92067541 </i>
   </energy>
  </scstep>
  <scstep>
   <time name="dav">   58.31   58.73</time>
   <time name="total">   59.33   59.75</time>
   <energy>
    <i name="e_fr_energy">   -234.98781349 </i>
    <i name="e_wo_entrp">   -234.78844102 </i>
    <i name="e_0_energy">   -234.92135600 </i>
   </energy>
  </scstep>
  <scstep>
   <time name="dav">   49.75   50.20</time>
   <time name="total">   50.73   51.19</time>
   <energy>
    <i name="e_fr_energy">   -234.98858417 </i>
    <i name="e_wo_entrp">   -234.78857128 </i>
    <i name="e_0_energy">   -234.92191321 </i>
   </energy>
  </scstep>
  <scstep>
   <time name="dav">   47.25   47.57</time>
   <time name="total">   48.23   48.56</time>
   <energy>
    <i name="e_fr_energy">   -234.98868484 </i>
    <i name="e_wo_entrp">   -234.78822475 </i>
    <i name="e_0_energy">   -234.92186481 </i>
   </energy>
  </scstep>
  <scstep>
   <time name="dav">   46.75   47.08</time>
   <time name="total">   46.89   47.22</time>
   <energy>
    <i name="alphaZ">   2059.53800561 </i>
    <i name="ewald"> 389629.54767429 </i>
    <i name="hartreedc">-476182.88851065 </i>
    <i name="XCdc">   2859.15279532 </i>
    <i name="pawpsdc">  83784.66012752 </i>
    <i name="pawaedc"> -90678.65462372 </i>
    <i name="eentropy">     -0.20010722 </i>
    <i name="bandstr">   -752.39036063 </i>
    <i name="atom">  89046.24623812 </i>
    <i name="e_fr_energy">   -234.98876137 </i>
    <i name="e_wo_entrp">   -234.78865415 </i>
    <i name="e_0_energy">   -234.92205896 </i>
   </energy>
  </scstep>
  <structure>
   <crystal>
    <varray name="basis" >
     <v>       7.26000023       0.00000000       0.00000000 </v>
     <v>       0.00000000       7.26000023       0.00000000 </v>
     <v>       0.00000000       0.00000000      27.70499992 </v>
    </varray>
    <i name="volume">   1460.26414606 </i>
    <varray name="rec_basis" >
     <v>       0.13774104       0.00000000       0.00000000 </v>
     <v>       0.00000000       0.13774104       0.00000000 </v>
     <v>       0.00000000       0.00000000       0.03609457 </v>
    </varray>
   </crystal>
   <varray name="positions" >
    <v>       0.00000000      -0.00011164       0.00055019 </v>
    <v>       0.00000000       0.50009673       0.00054217 </v>
    <v>       0.50000000       0.00013190       0.00055294 </v>
    <v>       0.50000000       0.49989898       0.00055402 </v>
    <v>       0.25011513       0.24998277       0.00054525 </v>
    <v>       0.24989385       0.75000972       0.00055587 </v>
    <v>       0.74988487       0.24998277       0.00054525 </v>
    <v>       0.75010615       0.75000972       0.00055587 </v>
    <v>       0.00000000       0.24998675       0.06540219 </v>
    <v>       0.00000000       0.75000811       0.06539452 </v>
    <v>       0.50000000       0.24996882       0.06539518 </v>
    <v>       0.50000000       0.74991499       0.06543572 </v>
    <v>       0.25000667       0.00000356       0.06538933 </v>
    <v>       0.25004487       0.50005732       0.06539314 </v>
    <v>       0.74999333       0.00000356       0.06538933 </v>
    <v>       0.74995513       0.50005732       0.06539314 </v>
    <v>       0.00000000      -0.00007719       0.13154949 </v>
    <v>       0.00000000       0.50012190       0.13155284 </v>
    <v>       0.50000000       0.00007943       0.13152960 </v>
    <v>       0.50000000       0.49999428       0.13153998 </v>
    <v>       0.25010593       0.24995310       0.13155165 </v>
    <v>       0.24996580       0.74998775       0.13153510 </v>
    <v>       0.74989407       0.24995310       0.13155165 </v>
    <v>       0.75003419       0.74998775       0.13153510 </v>
    <v>       0.00000000       0.24998547       0.19680842 </v>
    <v>       0.00000000       0.75001727       0.19690583 </v>
    <v>       0.50000000       0.24997460       0.19690525 </v>
    <v>       0.50000000       0.74998613       0.19681430 </v>
    <v>       0.25009485      -0.00008443       0.19681278 </v>
    <v>       0.25010316       0.50010313       0.19682627 </v>
    <v>       0.74990515      -0.00008443       0.19681278 </v>
    <v>       0.74989684       0.50010313       0.19682627 </v>
    <v>       0.00000000       0.00007689       0.26182504 </v>
    <v>       0.00000000       0.49994099       0.26184766 </v>
    <v>       0.50000000       0.00003314       0.26193624 </v>
    <v>       0.50000000       0.50008028       0.26189294 </v>
    <v>       0.24993616       0.24996944       0.26183234 </v>
    <v>       0.25002779       0.74996518       0.26191389 </v>
    <v>       0.75006384       0.24996944       0.26183234 </v>
    <v>       0.74997221       0.74996518       0.26191389 </v>
    <v>       0.00000000       0.25002264       0.32729755 </v>
    <v>       0.00000000       0.75000529       0.32720871 </v>
    <v>       0.50000000       0.25014400       0.32721989 </v>
    <v>       0.50000000       0.75001596       0.32728396 </v>
    <v>       0.24989077       0.00003233       0.32720252 </v>
    <v>       0.24993965       0.49987797       0.32720997 </v>
    <v>       0.75010923       0.00003233       0.32720252 </v>
    <v>       0.75006035       0.49987797       0.32720997 </v>
    <v>       0.00000000      -0.00013316       0.39187166 </v>
    <v>       0.00000000       0.50006291       0.39185448 </v>
    <v>       0.50000000       0.00042360       0.39166117 </v>
    <v>       0.50000000       0.50028435       0.39187044 </v>
    <v>       0.25009866       0.24984945       0.39185828 </v>
    <v>       0.24990885       0.74998284       0.39176281 </v>
    <v>       0.74990134       0.24984945       0.39185828 </v>
    <v>       0.75009115       0.74998284       0.39176281 </v>
    <v>       0.00000000       0.24999030       0.45473642 </v>
    <v>       0.00000000       0.75002752       0.45463973 </v>
    <v>       0.50000000       0.25025605       0.45465758 </v>
    <v>       0.50000000       0.75081530       0.44600445 </v>
    <v>       0.24890707       0.00094936       0.45453511 </v>
    <v>       0.24966680       0.49949030       0.45463008 </v>
    <v>       0.75109293       0.00094936       0.45453511 </v>
    <v>       0.75033320       0.49949030       0.45463008 </v>
    <v>       0.50000000       0.73842122       0.50934676 </v>
    <v>       0.50000000       0.83195523       0.52219581 </v>
   </varray>
  </structure>
  <varray name="forces" >
   <v>       0.00000000      -0.00356876       0.24366694 </v>
   <v>       0.00000000       0.00307108       0.24235184 </v>
   <v>       0.00000000       0.00937265       0.25004823 </v>
   <v>       0.00000000      -0.00768603       0.24951661 </v>
   <v>       0.00459569      -0.00073581       0.24184448 </v>
   <v>      -0.00742118       0.00135905       0.25079547 </v>
   <v>      -0.00459569      -0.00073581       0.24184448 </v>
   <v>       0.00742118       0.00135905       0.25079547 </v>
   <v>       0.00000000       0.00043098      -0.00320071 </v>
   <v>       0.00000000       0.00093994      -0.00603980 </v>
   <v>       0.00000000      -0.00158596      -0.00510673 </v>
   <v>       0.00000000      -0.00460373       0.00241887 </v>
   <v>       0.00028850       0.00075087      -0.00808725 </v>
   <v>       0.00214287       0.00278694      -0.00686872 </v>
   <v>      -0.00028850       0.00075087      -0.00808725 </v>
   <v>      -0.00214287       0.00278694      -0.00686872 </v>
   <v>       0.00000000      -0.00776383      -0.02755120 </v>
   <v>       0.00000000       0.00971403      -0.02534709 </v>
   <v>       0.00000000       0.00726142      -0.03397631 </v>
   <v>       0.00000000      -0.00437386      -0.02883156 </v>
   <v>       0.00925808      -0.00159695      -0.02690059 </v>
   <v>      -0.00505292       0.00039793      -0.03237805 </v>
   <v>      -0.00925808      -0.00159695      -0.02690059 </v>
   <v>       0.00505292       0.00039793      -0.03237805 </v>
   <v>       0.00000000       0.00025636       0.00234263 </v>
   <v>       0.00000000       0.00190290       0.03179830 </v>
   <v>       0.00000000      -0.00174606       0.03222452 </v>
   <v>       0.00000000       0.00127959      -0.00236502 </v>
   <v>       0.01053346      -0.00946508       0.00330258 </v>
   <v>       0.00965817       0.00990945       0.00518460 </v>
   <v>      -0.01053346      -0.00946508       0.00330258 </v>
   <v>      -0.00965817       0.00990945       0.00518460 </v>
   <v>       0.00000000       0.01135195      -0.03208138 </v>
   <v>       0.00000000      -0.01139260      -0.02475536 </v>
   <v>       0.00000000       0.00090690       0.01095286 </v>
   <v>       0.00000000       0.00910426      -0.00234678 </v>
   <v>      -0.01092394      -0.00150270      -0.03168831 </v>
   <v>       0.00473112      -0.00226848       0.00233630 </v>
   <v>       0.01092394      -0.00150270      -0.03168831 </v>
   <v>      -0.00473112      -0.00226848       0.00233630 </v>
   <v>       0.00000000      -0.00056526      -0.10928016 </v>
   <v>       0.00000000      -0.00032488      -0.15091740 </v>
   <v>       0.00000000       0.01963791      -0.14309178 </v>
   <v>       0.00000000      -0.00096580      -0.15154469 </v>
   <v>      -0.02115744       0.01353102      -0.15778253 </v>
   <v>      -0.01074196      -0.01867925      -0.14717433 </v>
   <v>       0.02115744       0.01353102      -0.15778253 </v>
   <v>       0.01074196      -0.01867925      -0.14717433 </v>
   <v>       0.00000000      -0.01719278      -0.06153927 </v>
   <v>       0.00000000       0.01106950      -0.04614259 </v>
   <v>       0.00000000       0.45444850      -0.40502968 </v>
   <v>       0.00000000      -0.40445627      -0.36112776 </v>
   <v>       0.01300877       0.00142897      -0.05944357 </v>
   <v>      -0.43212848       0.00177922      -0.38928403 </v>
   <v>      -0.01300877       0.00142897      -0.05944357 </v>
   <v>       0.43212848       0.00177922      -0.38928403 </v>
   <v>       0.00000000       0.01427389       0.01163952 </v>
   <v>       0.00000000      -0.00194607      -0.06413855 </v>
   <v>       0.00000000       0.01227515      -0.04752289 </v>
   <v>       0.00000000       0.01666588       1.32352948 </v>
   <v>      -0.09029448       0.09155373      -0.11069529 </v>
   <v>      -0.03621953      -0.05027414      -0.07536275 </v>
   <v>       0.09029448       0.09155373      -0.11069529 </v>
   <v>       0.03621953      -0.05027414      -0.07536275 </v>
   <v>       0.00000000      -0.63884980       0.34013727 </v>
   <v>       0.00000000       0.44510927       0.07571362 </v>
  </varray>
  <varray name="stress" >
   <v>     -41.65890512       0.00000000       0.00000000 </v>
   <v>       0.00000000     -41.17417016      -0.27938412 </v>
   <v>       0.00000000      -0.27938405     -21.17369776 </v>
  </varray>
  <energy>
   <i name="e_fr_energy">   -261.50007072 </i>
   <i name="e_wo_entrp">   -261.29996350 </i>
   <i name="e_0_energy">   -261.43336832 </i>
  </energy>
  <time name="totalsc">  707.94  713.49</time>
 </calculation>
 <calculation>
  <scstep>
   <time name="dav">   46.43   46.77</time>
   <time name="total">   47.40   47.74</time>
   <energy>
    <i name="alphaZ">   2059.53800561 </i>
    <i name="ewald"> 389338.14677522 </i>
    <i name="hartreedc">-475891.59296933 </i>
    <i name="XCdc">   2859.12178129 </i>
    <i name="pawpsdc">  83783.06616161 </i>
    <i name="pawaedc"> -90677.15481876 </i>
    <i name="eentropy">     -0.19843905 </i>
    <i name="bandstr">   -752.15722635 </i>
    <i name="atom">  89046.24623812 </i>
    <i name="e_fr_energy">   -234.98449165 </i>
    <i name="e_wo_entrp">   -234.78605260 </i>
    <i name="e_0_energy">   -234.91834530 </i>
   </energy>
  </scstep>
  <scstep>
   <time name="dav">   62.68   63.27</time>
   <time name="total">   63.65   64.25</time>
   <energy>
    <i name="e_fr_energy">   -234.99987284 </i>
    <i name="e_wo_entrp">   -234.80059239 </i>
    <i name="e_0_energy">   -234.93344603 </i>
   </energy>
  </scstep>
  <scstep>
   <time name="dav">   49.46   49.93</time>
   <time name="total">   50.45   50.94</time>
   <energy>
    <i name="e_fr_energy">   -234.99967732 </i>
    <i name="e_wo_entrp">   -234.80145178 </i>
    <i name="e_0_energy">   -234.93360214 </i>
   </energy>
  </scstep>
  <scstep>
   <time name="dav">   50.05   50.44</time>
   <time name="total">   51.04   51.44</time>
   <energy>
    <i name="e_fr_energy">   -235.00005783 </i>
    <i name="e_wo_entrp">   -234.80051673 </i>
    <i name="e_0_energy">   -234.93354413 </i>
   </energy>
  </scstep>
  <scstep>
   <time name="dav">   42.25   42.56</time>
   <time name="total">   43.25   43.56</time>
   <energy>
    <i name="e_fr_energy">   -234.99936864 </i>
    <i name="e_wo_entrp">   -234.80115085 </i>
    <i name="e_0_energy">   -234.93329604 </i>
   </energy>
  </scstep>
  <scstep>
   <time name="dav">   41.56   41.83</time>
   <time name="total">   41.70   41.97</time>
   <energy>
    <i name="alphaZ">   2059.53800561 </i>
    <i name="ewald"> 389338.14677522 </i>
    <i name="hartreedc">-475894.05975263 </i>
    <i name="XCdc">   2859.12483857 </i>
    <i name="pawpsdc">  83772.25879246 </i>
    <i name="pawaedc"> -90666.18414667 </i>
    <i name="eentropy">     -0.19906716 </i>
    <i name="bandstr">   -749.87089637 </i>
    <i name="atom">  89046.24623812 </i>
    <i name="e_fr_energy">   -234.99921287 </i>
    <i name="e_wo_entrp">   -234.80014571 </i>
    <i name="e_0_energy">   -234.93285715 </i>
   </energy>
  </scstep>
  <structure>
   <crystal>
    <varray name="basis" >
     <v>       7.26000023       0.00000000       0.00000000 </v>
     <v>       0.00000000       7.26000023       0.00000000 </v>
     <v>       0.00000000       0.00000000      27.70499992 </v>
    </varray>
    <i name="volume">   1460.26414606 </i>
    <varray name="rec_basis" >
     <v>       0.13774104       0.00000000       0.00000000 </v>
     <v>       0.00000000       0.13774104       0.00000000 </v>
     <v>       0.00000000       0.00000000       0.03609457 </v>
    </varray>
   </crystal>
   <varray name="positions" >
    <v>       0.00000000      -0.00009590       0.00047262 </v>
    <v>       0.00000000       0.50008309       0.00046573 </v>
    <v>       0.50000000       0.00011330       0.00047498 </v>
    <v>       0.50000000       0.49991323       0.00047591 </v>
    <v>       0.25009890       0.24998520       0.00046837 </v>
    <v>       0.24990881       0.75000835       0.00047750 </v>
    <v>       0.74990110       0.24998520       0.00046837 </v>
    <v>       0.75009119       0.75000835       0.00047750 </v>
    <v>       0.00000000       0.24998862       0.06541762 </v>
    <v>       0.00000000       0.75000697       0.06541104 </v>
    <v>       0.50000000       0.24997321       0.06541160 </v>
    <v>       0.50000000       0.74992697       0.06544643 </v>
    <v>       0.25000573       0.00000306       0.06540658 </v>
    <v>       0.25003854       0.50004924       0.06540985 </v>
    <v>       0.74999427       0.00000306       0.06540658 </v>
    <v>       0.74996146       0.50004924       0.06540985 </v>
    <v>       0.00000000      -0.00006631       0.13156243 </v>
    <v>       0.00000000       0.50010471       0.13156531 </v>
    <v>       0.50000000       0.00006823       0.13154535 </v>
    <v>       0.50000000       0.49999509       0.13155426 </v>
    <v>       0.25009100       0.24995971       0.13156429 </v>
    <v>       0.24997063       0.74998947       0.13155007 </v>
    <v>       0.74990900       0.24995971       0.13156429 </v>
    <v>       0.75002937       0.74998947       0.13155007 </v>
    <v>       0.00000000       0.24998752       0.19680426 </v>
    <v>       0.00000000       0.75001484       0.19688793 </v>
    <v>       0.50000000       0.24997818       0.19688744 </v>
    <v>       0.50000000       0.74998809       0.19680931 </v>
    <v>       0.25008147      -0.00007252       0.19680800 </v>
    <v>       0.25008861       0.50008859       0.19681960 </v>
    <v>       0.74991853      -0.00007252       0.19680800 </v>
    <v>       0.74991139       0.50008859       0.19681960 </v>
    <v>       0.00000000       0.00006605       0.26182808 </v>
    <v>       0.00000000       0.49994931       0.26184752 </v>
    <v>       0.50000000       0.00002846       0.26192360 </v>
    <v>       0.50000000       0.50006896       0.26188641 </v>
    <v>       0.24994516       0.24997375       0.26183435 </v>
    <v>       0.25002387       0.74997009       0.26190441 </v>
    <v>       0.75005484       0.24997375       0.26183435 </v>
    <v>       0.74997613       0.74997009       0.26190441 </v>
    <v>       0.00000000       0.25001945       0.32733862 </v>
    <v>       0.00000000       0.75000455       0.32726231 </v>
    <v>       0.50000000       0.25012370       0.32727192 </v>
    <v>       0.50000000       0.75001371       0.32732695 </v>
    <v>       0.24990617       0.00002777       0.32725699 </v>
    <v>       0.24994816       0.49989517       0.32726339 </v>
    <v>       0.75009383       0.00002777       0.32725699 </v>
    <v>       0.75005184       0.49989517       0.32726339 </v>
    <v>       0.00000000      -0.00011439       0.39186969 </v>
    <v>       0.00000000       0.50005404       0.39185493 </v>
    <v>       0.50000000       0.00036387       0.39168887 </v>
    <v>       0.50000000       0.50024426       0.39186864 </v>
    <v>       0.25008475       0.24987068       0.39185819 </v>
    <v>       0.24992170       0.74998526       0.39177618 </v>
    <v>       0.74991525       0.24987068       0.39185819 </v>
    <v>       0.75007830       0.74998526       0.39177618 </v>
    <v>       0.00000000       0.24999166       0.45473903 </v>
    <v>       0.00000000       0.75002364       0.45465597 </v>
    <v>       0.50000000       0.25021995       0.45467130 </v>
    <v>       0.50000000       0.75070035       0.44723818 </v>
    <v>       0.24906116       0.00081551       0.45456610 </v>
    <v>       0.24971378       0.49956216       0.45464768 </v>
    <v>       0.75093884       0.00081551       0.45456610 </v>
    <v>       0.75028622       0.49956216       0.45464768 </v>
    <v>       0.50000000       0.74005372       0.50824137 </v>
    <v>       0.50000000       0.83064449       0.52196327 </v>
   </varray>
  </structure>
  <varray name="forces" >
   <v>       0.00000000      -0.00609565       0.26645518 </v>
   <v>       0.00000000       0.00483256       0.26465291 </v>
   <v>       0.00000000       0.01211321       0.27230321 </v>
   <v>       0.00000000      -0.00995069       0.27195908 </v>
   <v>       0.00690645      -0.00135114       0.26448954 </v>
   <v>      -0.00978600       0.00127031       0.27334989 </v>
   <v>      -0.00690645      -0.00135114       0.26448954 </v>
   <v>       0.00978600       0.00127031       0.27334989 </v>
   <v>       0.00000000      -0.00023732      -0.01156606 </v>
   <v>       0.00000000       0.00083955      -0.01464160 </v>
   <v>       0.00000000      -0.00253629      -0.01377846 </v>
   <v>       0.00000000      -0.00668137      -0.00278897 </v>
   <v>       0.00001987       0.00103975      -0.01739617 </v>
   <v>       0.00272682       0.00352404      -0.01591554 </v>
   <v>      -0.00001987       0.00103975      -0.01739617 </v>
   <v>      -0.00272682       0.00352404      -0.01591554 </v>
   <v>       0.00000000      -0.00832174      -0.03165493 </v>
   <v>       0.00000000       0.01099753      -0.02926300 </v>
   <v>       0.00000000       0.00897978      -0.03925187 </v>
   <v>       0.00000000      -0.00451333      -0.03369680 </v>
   <v>       0.01030024      -0.00305313      -0.03085501 </v>
   <v>      -0.00584620      -0.00025491      -0.03734845 </v>
   <v>      -0.01030024      -0.00305313      -0.03085501 </v>
   <v>       0.00584620      -0.00025491      -0.03734845 </v>
   <v>       0.00000000      -0.00036486       0.00842148 </v>
   <v>       0.00000000       0.00196778       0.04505237 </v>
   <v>       0.00000000      -0.00243065       0.04541123 </v>
   <v>       0.00000000       0.00031879       0.00579498 </v>
   <v>       0.01122448      -0.01019494       0.01003782 </v>
   <v>       0.01078738       0.01083252       0.01320995 </v>
   <v>      -0.01122448      -0.01019494       0.01003782 </v>
   <v>      -0.01078738       0.01083252       0.01320995 </v>
   <v>       0.00000000       0.01197145      -0.02759485 </v>
   <v>       0.00000000      -0.01188443      -0.01886466 </v>
   <v>       0.00000000       0.00227901       0.02183239 </v>
   <v>       0.00000000       0.00946802       0.00564108 </v>
   <v>      -0.01149902      -0.00245098      -0.02655929 </v>
   <v>       0.00424345      -0.00317229       0.01193447 </v>
   <v>       0.01149902      -0.00245098      -0.02655929 </v>
   <v>      -0.00424345      -0.00317229       0.01193447 </v>
   <v>       0.00000000      -0.00010687      -0.12409659 </v>
   <v>       0.00000000      -0.00030499      -0.16830415 </v>
   <v>       0.00000000       0.02073978      -0.16030945 </v>
   <v>       0.00000000      -0.00052886      -0.16308530 </v>
   <v>      -0.02039206       0.01140784      -0.17545341 </v>
   <v>      -0.01014893      -0.01882997      -0.16555662 </v>
   <v>       0.02039206       0.01140784      -0.17545341 </v>
   <v>       0.01014893      -0.01882997      -0.16555662 </v>
   <v>       0.00000000      -0.01860261      -0.05147741 </v>
   <v>       0.00000000       0.01080803      -0.04004830 </v>
   <v>       0.00000000       0.37572815      -0.35277457 </v>
   <v>       0.00000000      -0.31354193      -0.29433423 </v>
   <v>       0.01378713      -0.00346176      -0.05104676 </v>
   <v>      -0.34758179       0.00128158      -0.32947420 </v>
   <v>      -0.01378713      -0.00346176      -0.05104676 </v>
   <v>       0.34758179       0.00128158      -0.32947420 </v>
   <v>       0.00000000       0.01142856       0.00754883 </v>
   <v>       0.00000000      -0.00035653      -0.06745073 </v>
   <v>       0.00000000       0.01643381      -0.05121418 </v>
   <v>       0.00000000       0.03964314       0.82647795 </v>
   <v>      -0.10902477       0.10614729      -0.12103232 </v>
   <v>      -0.04001174      -0.05748657      -0.07869886 </v>
   <v>       0.10902477       0.10614729      -0.12103232 </v>
   <v>       0.04001174      -0.05748657      -0.07869886 </v>
   <v>       0.00000000      -0.92014511       0.40684815 </v>
   <v>       0.00000000       0.69755881       0.20042718 </v>
  </varray>
  <varray name="stress" >
   <v>     -43.62190536       0.00000000       0.00000000 </v>
   <v>       0.00000000     -42.96998344      -0.20897412 </v>
   <v>       0.00000000      -0.20897444     -22.96423660 </v>
  </varray>
  <energy>
   <i name="e_fr_energy">   -261.50315826 </i>
   <i name="e_wo_entrp">   -261.30409110 </i>
   <i name="e_0_energy">   -261.43680254 </i>
  </energy>
  <time name="totalsc">  399.67  402.84</time>
 </calculation>
 <calculation>
  <scstep>
   <time name="dav">   48.55   49.04</time>
   <time name="total">   49.53   50.02</time>
   <energy>
    <i name="alphaZ">   2059.53800561 </i>
    <i name="ewald"> 389463.85140744 </i>
    <i name="hartreedc">-476017.68316541 </i>
    <i name="XCdc">   2859.13697325 </i>
    <i name="pawpsdc">  83771.69371191 </i>
    <i name="pawaedc"> -90665.58693532 </i>
    <i name="eentropy">     -0.19961294 </i>
    <i name="bandstr">   -751.99176064 </i>
    <i name="atom">  89046.24623812 </i>
    <i name="e_fr_energy">   -234.99513799 </i>
    <i name="e_wo_entrp">   -234.79552505 </i>
    <i name="e_0_energy">   -234.92860034 </i>
   </energy>
  </scstep>
  <scstep>
   <time name="dav">   64.59   65.02</time>
   <time name="total">   65.57   66.00</time>
   <energy>
    <i name="e_fr_energy">   -234.99807401 </i>
    <i name="e_wo_entrp">   -234.79944313 </i>
    <i name="e_0_energy">   -234.93186372 </i>
   </energy>
  </scstep>
  <scstep>
   <time name="dav">   49.63   49.96</time>
   <time name="total">   50.61   50.95</time>
   <energy>
    <i name="e_fr_energy">   -234.99786506 </i>
    <i name="e_wo_entrp">   -234.79816967 </i>
    <i name="e_0_energy">   -234.93129993 </i>
   </energy>
  </scstep>
  <scstep>
   <time name="dav">   46.30   46.63</time>
   <time name="total">   46.44   46.76</time>
   <energy>
    <i name="alphaZ">   2059.53800561 </i>
    <i name="ewald"> 389463.85140744 </i>
    <i name="hartreedc">-476017.50587781 </i>
    <i name="XCdc">   2859.13747218 </i>
    <i name="pawpsdc">  83773.49969157 </i>
    <i name="pawaedc"> -90667.45187389 </i>
    <i name="eentropy">     -0.19923535 </i>
    <i name="bandstr">   -752.11362755 </i>
    <i name="atom">  89046.24623812 </i>
    <i name="e_fr_energy">   -234.99779969 </i>
    <i name="e_wo_entrp">   -234.79856434 </i>
    <i name="e_0_energy">   -234.93138791 </i>
   </energy>
  </scstep>
  <structure>
   <crystal>
    <varray name="basis" >
[...]
       <r>    12.9285     0.0000   456.0000 </r>
       <r>    13.0047     0.0000   456.0000 </r>
       <r>    13.0809     0.0000   456.0000 </r>
       <r>    13.1571     0.0000   456.0000 </r>
       <r>    13.2332     0.0000   456.0000 </r>
       <r>    13.3094     0.0000   456.0000 </r>
       <r>    13.3856     0.0000   456.0000 </r>
      </set>
      <set comment="spin 2">
       <r>    -9.4669     0.0000     0.0000 </r>
       <r>    -9.3907     0.0000     0.0000 </r>
       <r>    -9.3146     0.0000     0.0000 </r>
       <r>    -9.2384     0.0000     0.0000 </r>
       <r>    -9.1622     0.0000     0.0000 </r>
       <r>    -9.0860    -0.0000    -0.0000 </r>
       <r>    -9.0099    -0.0000    -0.0000 </r>
       <r>    -8.9337    -0.0000    -0.0000 </r>
       <r>    -8.8575    -0.0000    -0.0000 </r>
       <r>    -8.7813    -0.0000    -0.0000 </r>
       <r>    -8.7052    -0.0000    -0.0000 </r>
       <r>    -8.6290    -0.0000    -0.0000 </r>
       <r>    -8.5528    -0.0000    -0.0000 </r>
       <r>    -8.4766    -0.0000    -0.0000 </r>
       <r>    -8.4005    -0.0000    -0.0000 </r>
       <r>    -8.3243    -0.0000    -0.0000 </r>
       <r>    -8.2481    -0.0000    -0.0000 </r>
       <r>    -8.1719    -0.0000    -0.0000 </r>
       <r>    -8.0958    -0.0001    -0.0000 </r>
       <r>    -8.0196    -0.0004    -0.0000 </r>
       <r>    -7.9434    -0.0023    -0.0002 </r>
       <r>    -7.8672    -0.0088    -0.0009 </r>
       <r>    -7.7911    -0.0208    -0.0025 </r>
       <r>    -7.7149    -0.0204    -0.0040 </r>
       <r>    -7.6387     0.0405    -0.0009 </r>
       <r>    -7.5625     0.1877     0.0134 </r>
       <r>    -7.4864     0.3332     0.0387 </r>
       <r>    -7.4102     0.3538     0.0657 </r>
       <r>    -7.3340     0.3616     0.0932 </r>
       <r>    -7.2578     0.6789     0.1450 </r>
       <r>    -7.1817     1.3040     0.2443 </r>
       <r>    -7.1055     1.7213     0.3754 </r>
       <r>    -7.0293     1.6908     0.5042 </r>
       <r>    -6.9531     1.8492     0.6451 </r>
       <r>    -6.8770     2.8772     0.8642 </r>
       <r>    -6.8008     4.3365     1.1946 </r>
       <r>    -6.7246     5.0307     1.5778 </r>
       <r>    -6.6484     4.4672     1.9181 </r>
       <r>    -6.5723     3.3022     2.1696 </r>
       <r>    -6.4961     2.2950     2.3444 </r>
       <r>    -6.4199     1.6681     2.4715 </r>
       <r>    -6.3437     1.6275     2.5955 </r>
       <r>    -6.2676     2.3397     2.7737 </r>
       <r>    -6.1914     3.1522     3.0138 </r>
       <r>    -6.1152     3.1226     3.2517 </r>
       <r>    -6.0390     2.5197     3.4436 </r>
       <r>    -5.9629     2.5723     3.6396 </r>
       <r>    -5.8867     3.6153     3.9150 </r>
       <r>    -5.8105     4.6344     4.2680 </r>
       <r>    -5.7343     4.7350     4.6287 </r>
       <r>    -5.6582     4.0612     4.9380 </r>
       <r>    -5.5820     3.3710     5.1948 </r>
       <r>    -5.5058     3.4395     5.4568 </r>
       <r>    -5.4296     4.3371     5.7872 </r>
       <r>    -5.3535     4.9320     6.1629 </r>
       <r>    -5.2773     4.0600     6.4722 </r>
       <r>    -5.2011     2.2222     6.6414 </r>
       <r>    -5.1249     1.0723     6.7231 </r>
       <r>    -5.0488     1.3759     6.8279 </r>
       <r>    -4.9726     2.4048     7.0111 </r>
       <r>    -4.8964     3.2736     7.2605 </r>
       <r>    -4.8202     4.1547     7.5770 </r>
       <r>    -4.7441     5.8017     8.0189 </r>
       <r>    -4.6679     8.0849     8.6348 </r>
       <r>    -4.5917     9.7054     9.3741 </r>
       <r>    -4.5155     9.5954    10.1050 </r>
       <r>    -4.4394     7.9004    10.7068 </r>
       <r>    -4.3632     5.5359    11.1285 </r>
       <r>    -4.2870     3.5649    11.4001 </r>
       <r>    -4.2108     2.8911    11.6203 </r>
       <r>    -4.1347     3.7335    11.9047 </r>
       <r>    -4.0585     5.2240    12.3027 </r>
       <r>    -3.9823     6.3090    12.7832 </r>
       <r>    -3.9061     7.1016    13.3242 </r>
       <r>    -3.8300     8.2355    13.9515 </r>
       <r>    -3.7538     9.5823    14.6815 </r>
       <r>    -3.6776    10.9224    15.5135 </r>
       <r>    -3.6014    12.4105    16.4589 </r>
       <r>    -3.5253    13.5926    17.4943 </r>
       <r>    -3.4491    13.6558    18.5345 </r>
       <r>    -3.3729    12.6071    19.4949 </r>
       <r>    -3.2967    11.2995    20.3556 </r>
       <r>    -3.2206    11.2759    21.2145 </r>
       <r>    -3.1444    14.7528    22.3383 </r>
       <r>    -3.0682    22.8159    24.0763 </r>
       <r>    -2.9920    32.5965    26.5594 </r>
       <r>    -2.9159    38.1737    29.4672 </r>
       <r>    -2.8397    36.7390    32.2658 </r>
       <r>    -2.7635    32.6755    34.7549 </r>
       <r>    -2.6873    32.6265    37.2402 </r>
       <r>    -2.6112    37.7450    40.1154 </r>
       <r>    -2.5350    44.4004    43.4976 </r>
       <r>    -2.4588    51.4767    47.4189 </r>
       <r>    -2.3826    61.7198    52.1204 </r>
       <r>    -2.3065    74.2987    57.7801 </r>
       <r>    -2.2303    81.1620    63.9626 </r>
       <r>    -2.1541    75.6920    69.7284 </r>
       <r>    -2.0779    62.4896    74.4885 </r>
       <r>    -2.0018    53.2450    78.5445 </r>
       <r>    -1.9256    54.2361    82.6759 </r>
       <r>    -1.8494    62.1589    87.4109 </r>
       <r>    -1.7732    70.1698    92.7560 </r>
       <r>    -1.6971    74.0987    98.4005 </r>
       <r>    -1.6209    74.4290   104.0701 </r>
       <r>    -1.5447    75.0979   109.7907 </r>
       <r>    -1.4685    79.9866   115.8837 </r>
       <r>    -1.3924    89.4170   122.6950 </r>
       <r>    -1.3162    99.6868   130.2887 </r>
       <r>    -1.2400   106.6600   138.4135 </r>
       <r>    -1.1638   110.1800   146.8064 </r>
       <r>    -1.0877   112.5199   155.3776 </r>
       <r>    -1.0115   112.8335   163.9727 </r>
       <r>    -0.9353   108.6551   172.2495 </r>
       <r>    -0.8591   101.6182   179.9903 </r>
       <r>    -0.7830    95.6963   187.2799 </r>
       <r>    -0.7068    93.2947   194.3866 </r>
       <r>    -0.6306    96.3648   201.7272 </r>
       <r>    -0.5544   104.9731   209.7236 </r>
       <r>    -0.4783   113.8964   218.3996 </r>
       <r>    -0.4021   117.2060   227.3278 </r>
       <r>    -0.3259   115.5359   236.1287 </r>
       <r>    -0.2497   113.7988   244.7973 </r>
       <r>    -0.1736   113.9957   253.4809 </r>
       <r>    -0.0974   115.3699   262.2692 </r>
       <r>    -0.0212   119.9688   271.4079 </r>
       <r>     0.0550   132.1318   281.4730 </r>
       <r>     0.1311   149.9796   292.8977 </r>
       <r>     0.2073   161.4736   305.1979 </r>
       <r>     0.2835   153.3719   316.8810 </r>
       <r>     0.3597   123.2049   326.2661 </r>
       <r>     0.4358    81.9058   332.5053 </r>
       <r>     0.5120    45.7440   335.9899 </r>
       <r>     0.5882    24.2277   337.8354 </r>
       <r>     0.6644    15.5494   339.0199 </r>
       <r>     0.7405    13.3368   340.0358 </r>
       <r>     0.8167    13.4882   341.0633 </r>
       <r>     0.8929    14.2229   342.1467 </r>
       <r>     0.9691    14.8173   343.2754 </r>
       <r>     1.0452    15.3549   344.4451 </r>
       <r>     1.1214    15.4027   345.6184 </r>
       <r>     1.1976    13.7260   346.6640 </r>
       <r>     1.2738    10.2182   347.4423 </r>
       <r>     1.3499     6.4792   347.9359 </r>
       <r>     1.4261     3.9878   348.2397 </r>
       <r>     1.5023     2.8998   348.4605 </r>
       <r>     1.5785     2.8783   348.6798 </r>
       <r>     1.6546     4.2885   349.0065 </r>
       <r>     1.7308     7.9491   349.6120 </r>
       <r>     1.8070    13.6706   350.6534 </r>
       <r>     1.8832    19.3386   352.1265 </r>
       <r>     1.9593    21.8271   353.7892 </r>
       <r>     2.0355    19.3278   355.2614 </r>
       <r>     2.1117    13.0909   356.2586 </r>
       <r>     2.1879     6.6786   356.7674 </r>
       <r>     2.2640     3.2662   357.0162 </r>
       <r>     2.3402     3.4126   357.2761 </r>
       <r>     2.4164     5.2124   357.6732 </r>
       <r>     2.4926     6.7025   358.1838 </r>
       <r>     2.5687     7.7242   358.7722 </r>
       <r>     2.6449     9.0757   359.4635 </r>
       <r>     2.7211    10.8723   360.2917 </r>
       <r>     2.7973    12.1614   361.2181 </r>
       <r>     2.8734    11.5448   362.0975 </r>
       <r>     2.9496     8.9264   362.7775 </r>
       <r>     3.0258     6.7984   363.2954 </r>
       <r>     3.1020     7.9489   363.9009 </r>
       <r>     3.1781    11.8201   364.8013 </r>
       <r>     3.2543    14.9116   365.9372 </r>
       <r>     3.3305    14.6667   367.0544 </r>
       <r>     3.4067    11.6355   367.9407 </r>
       <r>     3.4828     7.9485   368.5462 </r>
       <r>     3.5590     5.1280   368.9368 </r>
       <r>     3.6352     4.0836   369.2479 </r>
       <r>     3.7114     5.4404   369.6623 </r>
       <r>     3.7875     8.2339   370.2895 </r>
       <r>     3.8637     9.9768   371.0495 </r>
       <r>     3.9399     9.3326   371.7604 </r>
       <r>     4.0161     7.3379   372.3194 </r>
       <r>     4.0922     5.9114   372.7697 </r>
       <r>     4.1684     6.0936   373.2339 </r>
       <r>     4.2446     7.0957   373.7744 </r>
       <r>     4.3208     7.3011   374.3305 </r>
       <r>     4.3969     6.6008   374.8334 </r>
       <r>     4.4731     6.2158   375.3068 </r>
       <r>     4.5493     6.6851   375.8161 </r>
       <r>     4.6255     7.8807   376.4164 </r>
       <r>     4.7016     9.6488   377.1514 </r>
       <r>     4.7778    11.0725   377.9948 </r>
       <r>     4.8540    10.7481   378.8136 </r>
       <r>     4.9302     8.7472   379.4799 </r>
       <r>     5.0063     7.0743   380.0188 </r>
       <r>     5.0825     7.3321   380.5773 </r>
       <r>     5.1587     8.7243   381.2419 </r>
       <r>     5.2349     9.2564   381.9470 </r>
       <r>     5.3110     8.4172   382.5881 </r>
       <r>     5.3872     7.8787   383.1883 </r>
       <r>     5.4634     9.3209   383.8983 </r>
       <r>     5.5396    11.6569   384.7863 </r>
       <r>     5.6157    11.6264   385.6719 </r>
       <r>     5.6919     8.1310   386.2913 </r>
       <r>     5.7681     4.3564   386.6232 </r>
       <r>     5.8443     4.1771   386.9414 </r>
       <r>     5.9204     7.6743   387.5260 </r>
       <r>     5.9966    11.3015   388.3868 </r>
       <r>     6.0728    11.9859   389.2999 </r>
       <r>     6.1490    10.0400   390.0647 </r>
       <r>     6.2251     8.0504   390.6779 </r>
       <r>     6.3013     8.2509   391.3064 </r>
       <r>     6.3775    11.0316   392.1468 </r>
       <r>     6.4537    14.6659   393.2639 </r>
       <r>     6.5298    16.5706   394.5262 </r>
       <r>     6.6060    15.6686   395.7197 </r>
       <r>     6.6822    13.3176   396.7342 </r>
       <r>     6.7584    11.7539   397.6296 </r>
       <r>     6.8345    11.8402   398.5315 </r>
       <r>     6.9107    12.3030   399.4687 </r>
       <r>     6.9869    11.4549   400.3413 </r>
       <r>     7.0631     9.4431   401.0606 </r>
       <r>     7.1392     7.8793   401.6608 </r>
       <r>     7.2154     7.7732   402.2529 </r>
       <r>     7.2916     8.7541   402.9198 </r>
       <r>     7.3678     9.8213   403.6679 </r>
       <r>     7.4439    10.4197   404.4616 </r>
       <r>     7.5201    10.8930   405.2914 </r>
       <r>     7.5963    11.8736   406.1959 </r>
       <r>     7.6725    13.4860   407.2232 </r>
       <r>     7.7486    15.3100   408.3894 </r>
       <r>     7.8248    16.8577   409.6735 </r>
       <r>     7.9010    17.6767   411.0201 </r>
       <r>     7.9772    16.9594   412.3119 </r>
       <r>     8.0533    14.0216   413.3800 </r>
       <r>     8.1295     9.7363   414.1217 </r>
       <r>     8.2057     6.8615   414.6444 </r>
       <r>     8.2819     8.0402   415.2568 </r>
       <r>     8.3580    12.7017   416.2244 </r>
       <r>     8.4342    16.5963   417.4886 </r>
       <r>     8.5104    16.0763   418.7132 </r>
       <r>     8.5866    12.3258   419.6521 </r>
       <r>     8.6627     9.3869   420.3672 </r>
       <r>     8.7389     9.0314   421.0551 </r>
       <r>     8.8151    10.1733   421.8301 </r>
       <r>     8.8913    11.9912   422.7435 </r>
       <r>     8.9674    14.5736   423.8537 </r>
       <r>     9.0436    17.2210   425.1655 </r>
       <r>     9.1198    18.4619   426.5718 </r>
       <r>     9.1960    17.8229   427.9295 </r>
       <r>     9.2721    16.3665   429.1762 </r>
       <r>     9.3483    15.2485   430.3377 </r>
       <r>     9.4245    14.6784   431.4559 </r>
       <r>     9.5007    14.4040   432.5531 </r>
       <r>     9.5768    14.1243   433.6290 </r>
       <r>     9.6530    13.4198   434.6513 </r>
       <r>     9.7292    12.3320   435.5907 </r>
       <r>     9.8054    11.6948   436.4815 </r>
       <r>     9.8815    11.9980   437.3955 </r>
       <r>     9.9577    12.5343   438.3503 </r>
       <r>    10.0339    12.3177   439.2886 </r>
       <r>    10.1101    11.4376   440.1598 </r>
       <r>    10.1862    11.2844   441.0194 </r>
       <r>    10.2624    13.4059   442.0406 </r>
       <r>    10.3386    17.8082   443.3971 </r>
       <r>    10.4148    22.2113   445.0891 </r>
       <r>    10.4909    23.4320   446.8740 </r>
       <r>    10.5671    20.1619   448.4099 </r>
       <r>    10.6433    14.3708   449.5046 </r>
       <r>    10.7195     9.4692   450.2259 </r>
       <r>    10.7956     7.3868   450.7886 </r>
       <r>    10.8718     8.0096   451.3987 </r>
       <r>    10.9480    10.2415   452.1788 </r>
       <r>    11.0242    12.1954   453.1078 </r>
       <r>    11.1003    11.7743   454.0047 </r>
       <r>    11.1765     8.8197   454.6766 </r>
       <r>    11.2527     5.5998   455.1031 </r>
       <r>    11.3289     4.0498   455.4116 </r>
       <r>    11.4050     3.6499   455.6897 </r>
       <r>    11.4812     2.8538   455.9070 </r>
       <r>    11.5574     1.4198   456.0152 </r>
       <r>    11.6336     0.2464   456.0340 </r>
       <r>    11.7097    -0.1880   456.0196 </r>
       <r>    11.7859    -0.1678   456.0069 </r>
       <r>    11.8621    -0.0687   456.0016 </r>
       <r>    11.9383    -0.0178   456.0003 </r>
       <r>    12.0144    -0.0032   456.0000 </r>
       <r>    12.0906    -0.0004   456.0000 </r>
       <r>    12.1668    -0.0000   456.0000 </r>
       <r>    12.2430    -0.0000   456.0000 </r>
       <r>    12.3191    -0.0000   456.0000 </r>
       <r>    12.3953    -0.0000   456.0000 </r>
       <r>    12.4715    -0.0000   456.0000 </r>
       <r>    12.5477    -0.0000   456.0000 </r>
       <r>    12.6238    -0.0000   456.0000 </r>
       <r>    12.7000     0.0000   456.0000 </r>
       <r>    12.7762     0.0000   456.0000 </r>
       <r>    12.8524     0.0000   456.0000 </r>
       <r>    12.9285     0.0000   456.0000 </r>
       <r>    13.0047     0.0000   456.0000 </r>
       <r>    13.0809     0.0000   456.0000 </r>
       <r>    13.1571     0.0000   456.0000 </r>
       <r>    13.2332     0.0000   456.0000 </r>
       <r>    13.3094     0.0000   456.0000 </r>
       <r>    13.3856     0.0000   456.0000 </r>
      </set>
     </set>
    </array>
   </total>
  </dos>
 </calculation>
 <structure name="finalpos" >
  <crystal>
   <varray name="basis" >
    <v>       7.26000023       0.00000000       0.00000000 </v>
    <v>       0.00000000       7.26000023       0.00000000 </v>
    <v>       0.00000000       0.00000000      27.70499992 </v>
   </varray>
   <i name="volume">   1460.26414606 </i>
   <varray name="rec_basis" >
    <v>       0.13774104       0.00000000       0.00000000 </v>
    <v>       0.00000000       0.13774104       0.00000000 </v>
    <v>       0.00000000       0.00000000       0.03609457 </v>
   </varray>
  </crystal>
  <varray name="positions" >
   <v>       0.00000000       0.00034896       0.00788336 </v>
   <v>       0.00000000       0.50062987       0.00789591 </v>
   <v>       0.50000000       0.00050867       0.00788896 </v>
   <v>       0.50000000       0.50042048       0.00787971 </v>
   <v>       0.25021733       0.25046434       0.00786735 </v>
   <v>       0.24999459       0.75048607       0.00788907 </v>
   <v>       0.74978267       0.25046434       0.00786735 </v>
   <v>       0.75000541       0.75048607       0.00788907 </v>
   <v>       0.00000000       0.25053578       0.07040569 </v>
   <v>       0.00000000       0.75055199       0.07023352 </v>
   <v>       0.50000000       0.25054103       0.07026061 </v>
   <v>       0.50000000       0.75045655       0.07046335 </v>
   <v>       0.24996964       0.00057296       0.07029092 </v>
   <v>       0.25000772       0.50050304       0.07030212 </v>
   <v>       0.75003036       0.00057296       0.07029092 </v>
   <v>       0.74999228       0.50050304       0.07030212 </v>
   <v>       0.00000000      -0.00001283       0.13419493 </v>
   <v>       0.00000000       0.50117154       0.13419071 </v>
   <v>       0.50000000       0.00109370       0.13409225 </v>
   <v>       0.50000000       0.50011675       0.13413188 </v>
   <v>       0.25057880       0.25054591       0.13419197 </v>
   <v>       0.24955216       0.75058913       0.13407784 </v>
   <v>       0.74942120       0.25054591       0.13419197 </v>
   <v>       0.75044784       0.75058913       0.13407784 </v>
   <v>       0.00000000       0.25053382       0.19694841 </v>
   <v>       0.00000000       0.75052227       0.19763618 </v>
   <v>       0.50000000       0.25053315       0.19766222 </v>
   <v>       0.50000000       0.75063210       0.19716417 </v>
   <v>       0.25056186       0.00004029       0.19723154 </v>
   <v>       0.25049882       0.50106365       0.19723146 </v>
   <v>       0.74943814       0.00004029       0.19723154 </v>
   <v>       0.74950118       0.50106365       0.19723146 </v>
   <v>       0.00000000       0.00093689       0.25986933 </v>
   <v>       0.00000000       0.49994587       0.25991796 </v>
   <v>       0.50000000       0.00035698       0.26033033 </v>
   <v>       0.50000000       0.50088764       0.26026510 </v>
   <v>       0.24954943       0.25057730       0.25985727 </v>
   <v>       0.25029965       0.75044016       0.26024696 </v>
   <v>       0.75045057       0.25057730       0.25985727 </v>
   <v>       0.74970035       0.75044016       0.26024696 </v>
   <v>       0.00000000       0.25057768       0.32319568 </v>
   <v>       0.00000000       0.75032051       0.32314088 </v>
   <v>       0.50000000       0.25107146       0.32326331 </v>
   <v>       0.50000000       0.75050341       0.32338676 </v>
   <v>       0.24977604       0.00075329       0.32301379 </v>
   <v>       0.24989258       0.50042816       0.32311630 </v>
   <v>       0.75022396       0.00075329       0.32301379 </v>
   <v>       0.75010742       0.50042816       0.32311630 </v>
   <v>       0.00000000       0.00020074       0.38664741 </v>
   <v>       0.00000000       0.50096566       0.38684446 </v>
   <v>       0.50000000      -0.00010761       0.38709021 </v>
   <v>       0.50000000       0.50238474       0.38744871 </v>
   <v>       0.25037658       0.25092836       0.38666976 </v>
   <v>       0.25112707       0.75077443       0.38716500 </v>
   <v>       0.74962342       0.25092836       0.38666976 </v>
   <v>       0.74887293       0.75077443       0.38716500 </v>
   <v>       0.00000000       0.25126567       0.44916898 </v>
   <v>       0.00000000       0.75038269       0.44906842 </v>
   <v>       0.50000000       0.25037367       0.44932863 </v>
   <v>       0.50000000       0.75197044       0.45161073 </v>
   <v>       0.24761744       0.00340658       0.44897618 </v>
   <v>       0.24911936       0.49893772       0.44931285 </v>
   <v>       0.75238256       0.00340658       0.44897618 </v>
   <v>       0.75088064       0.49893772       0.44931285 </v>
   <v>       0.50000000       0.70991251       0.51447064 </v>
   <v>       0.50000000       0.82110309       0.51303176 </v>
  </varray>
 </structure>
</modeling>
