unknown system                          
           1
     7.260000    0.000000    0.000000
     0.000000    7.260000    0.000000
     0.000000    0.000000   27.705000
   Cu   H 
    64     2
Direct configuration=     1
   0.00000000  0.00000000  0.00000000
   0.00000000  0.50000000  0.00000000
   0.50000000  0.00000000  0.00000000
   0.50000000  0.50000000  0.00000000
   0.25000000  0.25000000  0.00000000
   0.25000000  0.75000000  0.00000000
   0.75000000  0.25000000  0.00000000
   0.75000000  0.75000000  0.00000000
   0.00000000  0.25000000  0.06551164
   0.00000000  0.75000000  0.06551164
   0.50000000  0.25000000  0.06551164
   0.50000000  0.75000000  0.06551164
   0.25000000  0.00000000  0.06551164
   0.25000000  0.50000000  0.06551164
   0.75000000  0.00000000  0.06551164
   0.75000000  0.50000000  0.06551164
   0.00000000  0.00000000  0.13164128
   0.00000000  0.50000000  0.13164128
   0.50000000  0.00000000  0.13164128
   0.50000000  0.50000000  0.13164128
   0.25000000  0.25000000  0.13164128
   0.25000000  0.75000000  0.13164128
   0.75000000  0.25000000  0.13164128
   0.75000000  0.75000000  0.13164128
   0.00000000  0.25000000  0.19677891
   0.00000000  0.75000000  0.19677891
   0.50000000  0.25000000  0.19677891
   0.50000000  0.75000000  0.19677891
   0.25000000  0.00000000  0.19677891
   0.25000000  0.50000000  0.19677891
   0.75000000  0.00000000  0.19677891
   0.75000000  0.50000000  0.19677891
   0.00000000  0.00000000  0.26184662
   0.00000000  0.50000000  0.26184662
   0.50000000  0.00000000  0.26184662
   0.50000000  0.50000000  0.26184662
   0.25000000  0.25000000  0.26184662
   0.25000000  0.75000000  0.26184662
   0.75000000  0.25000000  0.26184662
   0.75000000  0.75000000  0.26184662
   0.00000000  0.25000000  0.32758887
   0.00000000  0.75000000  0.32758887
   0.50000000  0.25000000  0.32758887
   0.50000000  0.75000000  0.32758887
   0.25000000  0.00000000  0.32758887
   0.25000000  0.50000000  0.32758887
   0.75000000  0.00000000  0.32758887
   0.75000000  0.50000000  0.32758887
   0.00000000  0.00000000  0.39185763
   0.00000000  0.50000000  0.39185763
   0.50000000  0.00000000  0.39185763
   0.50000000  0.50000000  0.39185763
   0.25000000  0.25000000  0.39185763
   0.25000000  0.75000000  0.39185763
   0.75000000  0.25000000  0.39185763
   0.75000000  0.75000000  0.39185763
   0.00000000  0.25000000  0.45475490
   0.00000000  0.75000000  0.45475490
   0.50000000  0.25000000  0.45475490
   0.50000000  0.75000000  0.45475490
   0.25000000  0.00000000  0.45475490
   0.25000000  0.50000000  0.45475490
   0.75000000  0.00000000  0.45475490
   0.75000000  0.50000000  0.45475490
   0.50000000  0.75000000  0.50150658
   0.50000000  0.82265863  0.52054652
Direct configuration=     2
   0.00000000 -0.00011164  0.00055019
   0.00000000  0.50009673  0.00054217
   0.50000000  0.00013190  0.00055294
   0.50000000  0.49989898  0.00055402
   0.25011513  0.24998277  0.00054525
   0.24989385  0.75000972  0.00055587
   0.74988487  0.24998277  0.00054525
   0.75010615  0.75000972  0.00055587
   0.00000000  0.24998675  0.06540219
   0.00000000  0.75000811  0.06539452
   0.50000000  0.24996882  0.06539518
   0.50000000  0.74991499  0.06543572
   0.25000667  0.00000356  0.06538933
   0.25004487  0.50005732  0.06539314
   0.74999333  0.00000356  0.06538933
   0.74995513  0.50005732  0.06539314
   0.00000000 -0.00007719  0.13154949
   0.00000000  0.50012190  0.13155284
   0.50000000  0.00007943  0.13152960
   0.50000000  0.49999428  0.13153998
   0.25010593  0.24995310  0.13155165
   0.24996580  0.74998775  0.13153510
   0.74989407  0.24995310  0.13155165
   0.75003419  0.74998775  0.13153510
   0.00000000  0.24998547  0.19680842
   0.00000000  0.75001727  0.19690583
   0.50000000  0.24997460  0.19690525
   0.50000000  0.74998613  0.19681430
   0.25009485 -0.00008443  0.19681278
   0.25010316  0.50010313  0.19682627
   0.74990515 -0.00008443  0.19681278
   0.74989684  0.50010313  0.19682627
   0.00000000  0.00007689  0.26182504
   0.00000000  0.49994099  0.26184766
   0.50000000  0.00003314  0.26193624
   0.50000000  0.50008028  0.26189294
   0.24993616  0.24996944  0.26183234
   0.25002779  0.74996518  0.26191389
   0.75006384  0.24996944  0.26183234
   0.74997221  0.74996518  0.26191389
   0.00000000  0.25002264  0.32729755
   0.00000000  0.75000529  0.32720871
   0.50000000  0.25014400  0.32721989
   0.50000000  0.75001596  0.32728396
   0.24989077  0.00003233  0.32720252
   0.24993965  0.49987797  0.32720997
   0.75010923  0.00003233  0.32720252
   0.75006035  0.49987797  0.32720997
   0.00000000 -0.00013316  0.39187166
   0.00000000  0.50006291  0.39185448
   0.50000000  0.00042360  0.39166117
   0.50000000  0.50028435  0.39187044
   0.25009866  0.24984945  0.39185828
   0.24990885  0.74998284  0.39176281
   0.74990134  0.24984945  0.39185828
   0.75009115  0.74998284  0.39176281
   0.00000000  0.24999030  0.45473642
   0.00000000  0.75002752  0.45463973
   0.50000000  0.25025605  0.45465758
   0.50000000  0.75081530  0.44600445
   0.24890707  0.00094936  0.45453511
   0.24966680  0.49949030  0.45463008
   0.75109293  0.00094936  0.45453511
   0.75033320  0.49949030  0.45463008
   0.50000000  0.73842122  0.50934676
   0.50000000  0.83195523  0.52219581
Direct configuration=     3
   0.00000000 -0.00009590  0.00047262
   0.00000000  0.50008309  0.00046573
   0.50000000  0.00011330  0.00047498
   0.50000000  0.49991323  0.00047591
   0.25009890  0.24998520  0.00046837
   0.24990881  0.75000835  0.00047750
   0.74990110  0.24998520  0.00046837
   0.75009119  0.75000835  0.00047750
   0.00000000  0.24998862  0.06541762
   0.00000000  0.75000697  0.06541104
   0.50000000  0.24997321  0.06541160
   0.50000000  0.74992697  0.06544643
   0.25000573  0.00000306  0.06540658
   0.25003854  0.50004924  0.06540985
   0.74999427  0.00000306  0.06540658
   0.74996146  0.50004924  0.06540985
   0.00000000 -0.00006631  0.13156243
   0.00000000  0.50010471  0.13156531
   0.50000000  0.00006823  0.13154535
   0.50000000  0.49999509  0.13155426
   0.25009100  0.24995971  0.13156429
   0.24997063  0.74998947  0.13155007
   0.74990900  0.24995971  0.13156429
   0.75002937  0.74998947  0.13155007
   0.00000000  0.24998752  0.19680426
   0.00000000  0.75001484  0.19688793
   0.50000000  0.24997818  0.19688744
   0.50000000  0.74998809  0.19680931
   0.25008147 -0.00007252  0.19680800
   0.25008861  0.50008859  0.19681960
   0.74991853 -0.00007252  0.19680800
   0.74991139  0.50008859  0.19681960
   0.00000000  0.00006605  0.26182808
   0.00000000  0.49994931  0.26184752
   0.50000000  0.00002846  0.26192360
   0.50000000  0.50006896  0.26188641
   0.24994516  0.24997375  0.26183435
   0.25002387  0.74997009  0.26190441
   0.75005484  0.24997375  0.26183435
   0.74997613  0.74997009  0.26190441
   0.00000000  0.25001945  0.32733862
   0.00000000  0.75000455  0.32726231
   0.50000000  0.25012370  0.32727192
   0.50000000  0.75001371  0.32732695
   0.24990617  0.00002777  0.32725699
   0.24994816  0.49989517  0.32726339
   0.75009383  0.00002777  0.32725699
   0.75005184  0.49989517  0.32726339
   0.00000000 -0.00011439  0.39186969
   0.00000000  0.50005404  0.39185493
   0.50000000  0.00036387  0.39168887
   0.50000000  0.50024426  0.39186864
   0.25008475  0.24987068  0.39185819
   0.24992170  0.74998526  0.39177618
   0.74991525  0.24987068  0.39185819
   0.75007830  0.74998526  0.39177618
   0.00000000  0.24999166  0.45473903
   0.00000000  0.75002364  0.45465597
   0.50000000  0.25021995  0.45467130
   0.50000000  0.75070035  0.44723818
   0.24906116  0.00081551  0.45456610
   0.24971378  0.49956216  0.45464768
   0.75093884  0.00081551  0.45456610
   0.75028622  0.49956216  0.45464768
   0.50000000  0.74005372  0.50824137
   0.50000000  0.83064449  0.52196327
Direct configuration=     4
   0.00000000 -0.00010269  0.00050608
   0.00000000  0.50008897  0.00049871
   0.50000000  0.00012132  0.00050862
   0.50000000  0.49990708  0.00050961
   0.25010590  0.24998415  0.00050154
   0.24990236  0.75000894  0.00051131
   0.74989410  0.24998415  0.00050154
   0.75009764  0.75000894  0.00051131
   0.00000000  0.24998782  0.06541096
   0.00000000  0.75000746  0.06540391
   0.50000000  0.24997132  0.06540452
   0.50000000  0.74992180  0.06544181
   0.25000614  0.00000328  0.06539914
   0.25004127  0.50005273  0.06540264
   0.74999386  0.00000328  0.06539914
   0.74995873  0.50005273  0.06540264
   0.00000000 -0.00007100  0.13155685
   0.00000000  0.50011213  0.13155993
   0.50000000  0.00007306  0.13153855
   0.50000000  0.49999474  0.13154810
   0.25009744  0.24995686  0.13155884
   0.24996855  0.74998873  0.13154361
   0.74990256  0.24995686  0.13155884
   0.75003145  0.74998873  0.13154361
   0.00000000  0.24998663  0.19680605
   0.00000000  0.75001589  0.19689565
   0.50000000  0.24997663  0.19689512
   0.50000000  0.74998725  0.19681146
   0.25008724 -0.00007766  0.19681006
   0.25009489  0.50009486  0.19682248
   0.74991276 -0.00007766  0.19681006
   0.74990511  0.50009486  0.19682248
   0.00000000  0.00007073  0.26182677
   0.00000000  0.49994572  0.26184758
   0.50000000  0.00003048  0.26192905
   0.50000000  0.50007385  0.26188923
   0.24994128  0.24997189  0.26183348
   0.25002556  0.74996797  0.26190850
   0.75005872  0.24997189  0.26183348
   0.74997444  0.74996797  0.26190850
   0.00000000  0.25002082  0.32732090
   0.00000000  0.75000487  0.32723918
   0.50000000  0.25013246  0.32724947
   0.50000000  0.75001468  0.32730840
   0.24989953  0.00002974  0.32723349
   0.24994449  0.49988775  0.32724035
   0.75010047  0.00002974  0.32723349
   0.75005551  0.49988775  0.32724035
   0.00000000 -0.00012249  0.39187054
   0.00000000  0.50005786  0.39185474
   0.50000000  0.00038964  0.39167692
   0.50000000  0.50026156  0.39186942
   0.25009075  0.24986152  0.39185823
   0.24991616  0.74998422  0.39177041
   0.74990925  0.24986152  0.39185823
   0.75008384  0.74998422  0.39177041
   0.00000000  0.24999107  0.45473790
   0.00000000  0.75002532  0.45464896
   0.50000000  0.25023553  0.45466538
   0.50000000  0.75074995  0.44670588
   0.24899468  0.00087326  0.45455273
   0.24969351  0.49953115  0.45464008
   0.75100532  0.00087326  0.45455273
   0.75030649  0.49953115  0.45464008
   0.50000000  0.73934937  0.50871830
   0.50000000  0.83121002  0.52206360
Direct configuration=     5
   0.00000000 -0.00014254  0.00096885
   0.00000000  0.50012041  0.00095825
   0.50000000  0.00019624  0.00098182
   0.50000000  0.49984408  0.00098180
   0.25015084  0.24997590  0.00096067
   0.24984152  0.75001703  0.00098587
   0.74984916  0.24997590  0.00096067
   0.75015848  0.75001703  0.00098587
   0.00000000  0.24998724  0.06538184
   0.00000000  0.75001269  0.06536921
   0.50000000  0.24995578  0.06537138
   0.50000000  0.74988017  0.06542678
   0.25000933  0.00000664  0.06536031
   0.25006112  0.50007703  0.06536630
   0.74999067  0.00000664  0.06536031
   0.74993888  0.50007703  0.06536630
   0.00000000 -0.00013048  0.13149422
   0.00000000  0.50018667  0.13150125
   0.50000000  0.00012595  0.13146284
   0.50000000  0.49996646  0.13148214
   0.25016849  0.24993942  0.13149759
   0.24993388  0.74998815  0.13147133
   0.74983151  0.24993942  0.13149759
   0.75006612  0.74998815  0.13147133
   0.00000000  0.24998495  0.19681160
   0.00000000  0.75002842  0.19696170
   0.50000000  0.24996105  0.19696184
   0.50000000  0.74999095  0.19681113
   0.25016438 -0.00014818  0.19681771
   0.25016803  0.50016805  0.19683500
   0.74983562 -0.00014818  0.19681771
   0.74983197  0.50016805  0.19683500
   0.00000000  0.00014851  0.26177629
   0.00000000  0.49986703  0.26181197
   0.50000000  0.00003960  0.26196241
   0.50000000  0.50013870  0.26189532
   0.24986625  0.24995710  0.26178470
   0.25005802  0.74994799  0.26192497
   0.75013375  0.24995710  0.26178470
   0.74994198  0.74994799  0.26192497
   0.00000000  0.25001842  0.32711368
   0.00000000  0.75000219  0.32695282
   0.50000000  0.25027078  0.32697715
   0.50000000  0.75000955  0.32702950
   0.24975525  0.00011577  0.32693513
   0.24987040  0.49975543  0.32695996
   0.75024475  0.00011577  0.32693513
   0.75012960  0.49975543  0.32695996
   0.00000000 -0.00024244  0.39177980
   0.00000000  0.50012813  0.39178649
   0.50000000  0.00311712  0.39102635
   0.50000000  0.49793571  0.39131700
   0.25017959  0.24984814  0.39176916
   0.24737049  0.74999310  0.39115851
   0.74982041  0.24984814  0.39176916
   0.75262951  0.74999310  0.39115851
   0.00000000  0.25007589  0.45475334
   0.00000000  0.75001776  0.45453239
   0.50000000  0.25034084  0.45457784
   0.50000000  0.75100543  0.44784012
   0.24828065  0.00157346  0.45434554
   0.24942211  0.49914790  0.45450396
   0.75171935  0.00157346  0.45434554
   0.75057789  0.49914790  0.45450396
   0.50000000  0.73320153  0.51002199
   0.50000000  0.83589000  0.52245740
Direct configuration=     6
   0.00000000 -0.00016778  0.00126190
   0.00000000  0.50014031  0.00124927
   0.50000000  0.00024368  0.00128149
   0.50000000  0.49980419  0.00128083
   0.25017930  0.24997067  0.00125143
   0.24980299  0.75002215  0.00128640
   0.74982070  0.24997067  0.00125143
   0.75019701  0.75002215  0.00128640
   0.00000000  0.24998687  0.06536339
   0.00000000  0.75001599  0.06534724
   0.50000000  0.24994594  0.06535039
   0.50000000  0.74985380  0.06541726
   0.25001136  0.00000876  0.06533572
   0.25007369  0.50009242  0.06534328
   0.74998864  0.00000876  0.06533572
   0.74992631  0.50009242  0.06534328
   0.00000000 -0.00016815  0.13145456
   0.00000000  0.50023387  0.13146410
   0.50000000  0.00015945  0.13141489
   0.50000000  0.49994855  0.13144036
   0.25021348  0.24992838  0.13145880
   0.24991193  0.74998778  0.13142555
   0.74978652  0.24992838  0.13145880
   0.75008807  0.74998778  0.13142555
   0.00000000  0.24998389  0.19681511
   0.00000000  0.75003636  0.19700352
   0.50000000  0.24995118  0.19700409
   0.50000000  0.74999329  0.19681091
   0.25021323 -0.00019284  0.19682255
   0.25021435  0.50021441  0.19684294
   0.74978677 -0.00019284  0.19682255
   0.74978564  0.50021441  0.19684294
   0.00000000  0.00019778  0.26174433
   0.00000000  0.49981720  0.26178942
   0.50000000  0.00004538  0.26198353
   0.50000000  0.50017976  0.26189918
   0.24981873  0.24994773  0.26175380
   0.25007858  0.74993533  0.26193540
   0.75018127  0.24994773  0.26175380
   0.74992142  0.74993533  0.26193540
   0.00000000  0.25001690  0.32698246
   0.00000000  0.75000049  0.32677147
   0.50000000  0.25035837  0.32680470
   0.50000000  0.75000630  0.32685287
   0.24966388  0.00017026  0.32674620
   0.24982348  0.49967163  0.32678240
   0.75033612  0.00017026  0.32674620
   0.75017652  0.49967163  0.32678240
   0.00000000 -0.00031840  0.39172234
   0.00000000  0.50017264  0.39174327
   0.50000000  0.00484436  0.39061436
   0.50000000  0.49646282  0.39096717
   0.25023585  0.24983967  0.39171276
   0.24575838  0.74999873  0.39077100
   0.74976415  0.24983967  0.39171276
   0.75424162  0.74999873  0.39077100
   0.00000000  0.25012961  0.45476312
   0.00000000  0.75001297  0.45445856
   0.50000000  0.25040754  0.45452239
   0.50000000  0.75116721  0.44855841
   0.24782848  0.00201688  0.45421434
   0.24925024  0.49890520  0.45441776
   0.75217152  0.00201688  0.45421434
   0.75074976  0.49890520  0.45441776
   0.50000000  0.72930827  0.51084759
   0.50000000  0.83885370  0.52270678
Direct configuration=     7
   0.00000000 -0.00020971  0.00177775
   0.00000000  0.50017566  0.00176287
   0.50000000  0.00031114  0.00180676
   0.50000000  0.49974239  0.00180494
   0.25023152  0.24996527  0.00176255
   0.24974967  0.75003326  0.00181383
   0.74976848  0.24996527  0.00176255
   0.75025033  0.75003326  0.00181383
   0.00000000  0.24999205  0.06543003
   0.00000000  0.75002221  0.06540560
   0.50000000  0.24993672  0.06541132
   0.50000000  0.74981672  0.06549409
   0.25000907  0.00001761  0.06539014
   0.25008623  0.50010603  0.06540046
   0.74999093  0.00001761  0.06539014
   0.74991377  0.50010603  0.06540046
   0.00000000 -0.00022938  0.13141449
   0.00000000  0.50030902  0.13142822
   0.50000000  0.00022337  0.13135745
   0.50000000  0.49990121  0.13139538
   0.25028602  0.24991628  0.13141967
   0.24986401  0.74999024  0.13137129
   0.74971398  0.24991628  0.13141967
   0.75013599  0.74999024  0.13137129
   0.00000000  0.24998495  0.19678090
   0.00000000  0.75004872  0.19705699
   0.50000000  0.24993430  0.19705887
   0.50000000  0.75000608  0.19679467
   0.25030480 -0.00027430  0.19681058
   0.25029651  0.50029697  0.19683499
   0.74969520 -0.00027430  0.19681058
   0.74970349  0.50029697  0.19683499
   0.00000000  0.00026835  0.26163124
   0.00000000  0.49973950  0.26169475
   0.50000000  0.00005648  0.26196312
   0.50000000  0.50024866  0.26184789
   0.24974943  0.24993975  0.26164083
   0.25011413  0.74991469  0.26189238
   0.75025057  0.24993975  0.26164083
   0.74988587  0.74991469  0.26189238
   0.00000000  0.25001988  0.32677998
   0.00000000  0.74998325  0.32633420
   0.50000000  0.25054030  0.32639000
   0.50000000  0.75000384  0.32664051
   0.24942072  0.00035960  0.32639418
   0.24965461  0.49944788  0.32645574
   0.75057928  0.00035960  0.32639418
   0.75034539  0.49944788  0.32645574
   0.00000000 -0.00009895  0.39153599
   0.00000000  0.49991387  0.39160074
   0.50000000  0.00618147  0.39010203
   0.50000000  0.49551955  0.39053970
   0.24999105  0.24988701  0.39153193
   0.24459505  0.75002762  0.39028045
   0.75000895  0.24988701  0.39153193
   0.75540495  0.75002762  0.39028045
   0.00000000  0.25029456  0.45473448
   0.00000000  0.74999449  0.45433350
   0.50000000  0.25047854  0.45444567
   0.50000000  0.75164162  0.45003968
   0.24739380  0.00251056  0.45394134
   0.24922638  0.49875830  0.45420885
   0.75260620  0.00251056  0.45394134
   0.75077362  0.49875830  0.45420885
   0.50000000  0.72922728  0.51275928
   0.50000000  0.83688695  0.52204045
Direct configuration=     8
   0.00000000 -0.00027492  0.00258005
   0.00000000  0.50023065  0.00256168
   0.50000000  0.00041607  0.00262371
   0.50000000  0.49964628  0.00262009
   0.25031274  0.24995687  0.00255750
   0.24966674  0.75005055  0.00263414
   0.74968726  0.24995687  0.00255750
   0.75033326  0.75005055  0.00263414
   0.00000000  0.25000010  0.06553368
   0.00000000  0.75003188  0.06549638
   0.50000000  0.24992237  0.06550610
   0.50000000  0.74975905  0.06561359
   0.25000551  0.00003137  0.06547477
   0.25010573  0.50012720  0.06548939
   0.74999449  0.00003137  0.06547477
   0.74989427  0.50012720  0.06548939
   0.00000000 -0.00032461  0.13135217
   0.00000000  0.50042589  0.13137242
   0.50000000  0.00032279  0.13126812
   0.50000000  0.49982758  0.13132541
   0.25039885  0.24989747  0.13135881
   0.24978948  0.74999407  0.13128689
   0.74960115  0.24989747  0.13135881
   0.75021052  0.74999407  0.13128689
   0.00000000  0.24998659  0.19672768
   0.00000000  0.75006794  0.19714014
   0.50000000  0.24990803  0.19714408
   0.50000000  0.75002596  0.19676940
   0.25044722 -0.00040100  0.19679196
   0.25042428  0.50042539  0.19682262
   0.74955278 -0.00040100  0.19679196
   0.74957572  0.50042539  0.19682262
   0.00000000  0.00037811  0.26145536
   0.00000000  0.49961865  0.26154750
   0.50000000  0.00007373  0.26193138
   0.50000000  0.50035582  0.26176811
   0.24964164  0.24992733  0.26146511
   0.25016943  0.74988258  0.26182548
   0.75035836  0.24992733  0.26146511
   0.74983057  0.74988258  0.26182548
   0.00000000  0.25002452  0.32646506
   0.00000000  0.74995645  0.32565411
   0.50000000  0.25082327  0.32574501
   0.50000000  0.75000001  0.32631021
   0.24904255  0.00065410  0.32584670
   0.24939197  0.49909986  0.32594768
   0.75095745  0.00065410  0.32584670
   0.75060803  0.49909986  0.32594768
   0.00000000  0.00024236  0.39124616
   0.00000000  0.49951140  0.39137906
   0.50000000  0.00826109  0.38930519
   0.50000000  0.49405247  0.38987484
   0.24961031  0.24996063  0.39125068
   0.24278571  0.75007257  0.38951749
   0.75038969  0.24996063  0.39125068
   0.75721429  0.75007257  0.38951749
   0.00000000  0.25055112  0.45468995
   0.00000000  0.74996574  0.45413900
   0.50000000  0.25058898  0.45432634
   0.50000000  0.75237948  0.45234351
   0.24671773  0.00327839  0.45351673
   0.24918927  0.49852983  0.45388394
   0.75328227  0.00327839  0.45351673
   0.75081073  0.49852983  0.45388394
   0.50000000  0.72910132  0.51573256
   0.50000000  0.83382803  0.52100410
Direct configuration=     9
   0.00000000 -0.00029271  0.00309880
   0.00000000  0.50025081  0.00308397
   0.50000000  0.00041786  0.00314903
   0.50000000  0.49962020  0.00314313
   0.25034317  0.24996374  0.00307347
   0.24966121  0.75006053  0.00316080
   0.74965683  0.24996374  0.00307347
   0.75033879  0.75006053  0.00316080
   0.00000000  0.25002394  0.06586117
   0.00000000  0.75003240  0.06581521
   0.50000000  0.24994114  0.06582712
   0.50000000  0.74977070  0.06593948
   0.24999768  0.00003864  0.06578917
   0.25008867  0.50009826  0.06580550
   0.75000232  0.00003864  0.06578917
   0.74991133  0.50009826  0.06580550
   0.00000000 -0.00037113  0.13140145
   0.00000000  0.50046717  0.13142254
   0.50000000  0.00035987  0.13129514
   0.50000000  0.49976201  0.13136555
   0.25044117  0.24990924  0.13140707
   0.24974034  0.75000535  0.13131694
   0.74955883  0.24990924  0.13140707
   0.75025966  0.75000535  0.13131694
   0.00000000  0.25000014  0.19658289
   0.00000000  0.75006179  0.19711324
   0.50000000  0.24989922  0.19712008
   0.50000000  0.75007057  0.19670211
   0.25054430 -0.00048929  0.19671031
   0.25048836  0.50049850  0.19673865
   0.74945570 -0.00048929  0.19671031
   0.74951164  0.50049850  0.19673865
   0.00000000  0.00049517  0.26117893
   0.00000000  0.49947953  0.26128907
   0.50000000 -0.00003140  0.26174717
   0.50000000  0.50050427  0.26156249
   0.24952565  0.24994596  0.26119391
   0.25030985  0.74987494  0.26162019
   0.75047435  0.24994596  0.26119391
   0.74969015  0.74987494  0.26162019
   0.00000000  0.25004471  0.32624469
   0.00000000  0.74990539  0.32508875
   0.50000000  0.25099857  0.32519780
   0.50000000  0.75001434  0.32620540
   0.24876434  0.00095275  0.32546904
   0.24913651  0.49884563  0.32559635
   0.75123566  0.00095275  0.32546904
   0.75086349  0.49884563  0.32559635
   0.00000000  0.00081140  0.39085171
   0.00000000  0.49899508  0.39106764
   0.50000000  0.00673952  0.38925034
   0.50000000  0.49594316  0.38983586
   0.24907955  0.25017619  0.39088198
   0.24448003  0.75013280  0.38944639
   0.75092045  0.25017619  0.39088198
   0.75551997  0.75013280  0.38944639
   0.00000000  0.25085019  0.45454197
   0.00000000  0.74994008  0.45392026
   0.50000000  0.25057292  0.45415492
   0.50000000  0.75307513  0.45336099
   0.24687209  0.00326009  0.45309671
   0.24956892  0.49886496  0.45350376
   0.75312791  0.00326009  0.45309671
   0.75043108  0.49886496  0.45350376
   0.50000000  0.72485732  0.51767312
   0.50000000  0.83517269  0.52017943
Direct configuration=    10
   0.00000000 -0.00030878  0.00356729
   0.00000000  0.50026901  0.00355565
   0.50000000  0.00041947  0.00362345
   0.50000000  0.49959664  0.00361549
   0.25037066  0.24996994  0.00353945
   0.24965622  0.75006955  0.00363643
   0.74962934  0.24996994  0.00353945
   0.75034378  0.75006955  0.00363643
   0.00000000  0.25004547  0.06615693
   0.00000000  0.75003287  0.06610315
   0.50000000  0.24995808  0.06611703
   0.50000000  0.74978122  0.06623379
   0.24999061  0.00004522  0.06607311
   0.25007326  0.50007211  0.06609097
   0.75000939  0.00004522  0.06607311
   0.74992674  0.50007211  0.06609097
   0.00000000 -0.00041314  0.13144595
   0.00000000  0.50050445  0.13146781
   0.50000000  0.00039336  0.13131954
   0.50000000  0.49970279  0.13140180
   0.25047938  0.24991986  0.13145066
   0.24969595  0.75001553  0.13134408
   0.74952062  0.24991986  0.13145066
   0.75030405  0.75001553  0.13134408
   0.00000000  0.25001239  0.19645213
   0.00000000  0.75005623  0.19708895
   0.50000000  0.24989126  0.19709841
   0.50000000  0.75011086  0.19664133
   0.25063198 -0.00056903  0.19663658
   0.25054623  0.50056453  0.19666282
   0.74936802 -0.00056903  0.19663658
   0.74945377  0.50056453  0.19666282
   0.00000000  0.00060089  0.26092928
   0.00000000  0.49935389  0.26105568
   0.50000000 -0.00012635  0.26158082
   0.50000000  0.50063833  0.26137678
   0.24942089  0.24996279  0.26094899
   0.25043667  0.74986804  0.26143480
   0.75057911  0.24996279  0.26094899
   0.74956333  0.74986804  0.26143480
   0.00000000  0.25006294  0.32604568
   0.00000000  0.74985928  0.32457817
   0.50000000  0.25115688  0.32470361
   0.50000000  0.75002729  0.32611074
   0.24851309  0.00122247  0.32512797
   0.24890580  0.49861603  0.32527906
   0.75148691  0.00122247  0.32512797
   0.75109420  0.49861603  0.32527906
   0.00000000  0.00132531  0.39049548
   0.00000000  0.49852879  0.39078639
   0.50000000  0.00536538  0.38920081
   0.50000000  0.49765065  0.38980066
   0.24860021  0.25037086  0.39054900
   0.24601019  0.75018719  0.38938218
   0.75139979  0.25037086  0.39054900
   0.75398981  0.75018719  0.38938218
   0.00000000  0.25112029  0.45440834
   0.00000000  0.74991692  0.45372271
   0.50000000  0.25055841  0.45400011
   0.50000000  0.75370337  0.45427988
   0.24701149  0.00324357  0.45271738
   0.24991178  0.49916761  0.45316042
   0.75298851  0.00324357  0.45271738
   0.75008822  0.49916761  0.45316042
   0.50000000  0.72102453  0.51942566
   0.50000000  0.83638707  0.51943466
Direct configuration=    11
   0.00000000 -0.00027423  0.00400972
   0.00000000  0.50026159  0.00400635
   0.50000000  0.00035009  0.00406122
   0.50000000  0.49964035  0.00405064
   0.25035711  0.24998619  0.00398180
   0.24971620  0.75007180  0.00407355
   0.74964289  0.24998619  0.00398180
   0.75028380  0.75007180  0.00407355
   0.00000000  0.25007009  0.06667787
   0.00000000  0.75003011  0.06661543
   0.50000000  0.24999386  0.06663111
   0.50000000  0.74982618  0.06674502
   0.24997580  0.00006237  0.06658440
   0.25003823  0.50002339  0.06660233
   0.75002420  0.00006237  0.06658440
   0.74996177  0.50002339  0.06660233
   0.00000000 -0.00043090  0.13161994
   0.00000000  0.50051486  0.13163875
   0.50000000  0.00038793  0.13147922
   0.50000000  0.49967303  0.13156914
   0.25048820  0.24994634  0.13162206
   0.24968291  0.75002994  0.13150284
   0.74951180  0.24994634  0.13162206
   0.75031709  0.75002994  0.13150284
   0.00000000  0.25003124  0.19623481
   0.00000000  0.75003389  0.19697094
   0.50000000  0.24989177  0.19698461
   0.50000000  0.75016434  0.19652038
   0.25070421 -0.00062303  0.19649555
   0.25057835  0.50061590  0.19651271
   0.74929579 -0.00062303  0.19649555
   0.74942165  0.50061590  0.19651271
   0.00000000  0.00080211  0.26054142
   0.00000000  0.49913275  0.26067182
   0.50000000 -0.00037602  0.26126753
   0.50000000  0.50090234  0.26106162
   0.24922496  0.25000997  0.26056280
   0.25070783  0.74988303  0.26111001
   0.75077504  0.25000997  0.26056280
   0.74929217  0.74988303  0.26111001
   0.00000000  0.25011567  0.32570307
   0.00000000  0.74981032  0.32427880
   0.50000000  0.25120203  0.32441638
   0.50000000  0.75007379  0.32594581
   0.24850416  0.00135821  0.32483494
   0.24882823  0.49864478  0.32499127
   0.75149584  0.00135821  0.32483494
   0.75117177  0.49864478  0.32499127
   0.00000000  0.00136938  0.38998144
   0.00000000  0.49870101  0.39035039
   0.50000000  0.00260144  0.38938305
   0.50000000  0.50057827  0.38994360
   0.24868744  0.25066046  0.39005839
   0.24888292  0.75030186  0.38952339
   0.75131256  0.25066046  0.39005839
   0.75111708  0.75030186  0.38952339
   0.00000000  0.25142220  0.45411210
   0.00000000  0.74994002  0.45330175
   0.50000000  0.25048084  0.45362217
   0.50000000  0.75418861  0.45513267
   0.24751155  0.00295892  0.45227632
   0.25041833  0.49971039  0.45274514
   0.75248845  0.00295892  0.45227632
   0.74958167  0.49971039  0.45274514
   0.50000000  0.72170231  0.52101168
   0.50000000  0.83256634  0.51839646
Direct configuration=    12
   0.00000000 -0.00024467  0.00438827
   0.00000000  0.50025525  0.00439198
   0.50000000  0.00029072  0.00443579
   0.50000000  0.49967775  0.00442297
   0.25034552  0.25000009  0.00436030
   0.24976753  0.75007373  0.00444757
   0.74965448  0.25000009  0.00436030
   0.75023247  0.75007373  0.00444757
   0.00000000  0.25009115  0.06712361
   0.00000000  0.75002776  0.06705376
   0.50000000  0.25002448  0.06707097
   0.50000000  0.74986465  0.06718245
   0.24996313  0.00007705  0.06702188
   0.25000826  0.49998171  0.06703986
   0.75003687  0.00007705  0.06702188
   0.74999174  0.49998171  0.06703986
   0.00000000 -0.00044609  0.13176881
   0.00000000  0.50052376  0.13178502
   0.50000000  0.00038329  0.13161585
   0.50000000  0.49964757  0.13171232
   0.25049574  0.24996899  0.13176872
   0.24967176  0.75004226  0.13163868
   0.74950426  0.24996899  0.13176872
   0.75032824  0.75004226  0.13163868
   0.00000000  0.25004738  0.19604886
   0.00000000  0.75001478  0.19686997
   0.50000000  0.24989221  0.19688724
   0.50000000  0.75021011  0.19641689
   0.25076602 -0.00066925  0.19637488
   0.25060584  0.50065986  0.19638427
   0.74923398 -0.00066925  0.19637488
   0.74939416  0.50065986  0.19638427
   0.00000000  0.00097428  0.26020954
   0.00000000  0.49894353  0.26034337
   0.50000000 -0.00058964  0.26099948
   0.50000000  0.50112823  0.26079195
   0.24905731  0.25005033  0.26023237
   0.25093984  0.74989585  0.26083212
   0.75094269  0.25005033  0.26023237
   0.74906016  0.74989585  0.26083212
   0.00000000  0.25016079  0.32540992
   0.00000000  0.74976843  0.32402266
   0.50000000  0.25124066  0.32417062
   0.50000000  0.75011358  0.32580470
   0.24849651  0.00147436  0.32458422
   0.24876186  0.49866937  0.32474503
   0.75150349  0.00147436  0.32458422
   0.75123814  0.49866937  0.32474503
   0.00000000  0.00140708  0.38954160