 146 146   0   0
  0.2250407E+02  0.1089000E-08  0.1089000E-08  0.2770500E-08  0.5000000E-15
  1.000000000000000E-004
  CAR 
 unknown system                          
     13.01469055     -9.52546499  301      1.74150557      1.00000000
     -9.525  0.0000E+00  0.0000E+00  0.0000E+00  0.0000E+00
     -9.450  0.0000E+00  0.0000E+00  0.0000E+00  0.0000E+00
     -9.375  0.0000E+00  0.0000E+00  0.0000E+00  0.0000E+00
     -9.300  0.0000E+00  0.0000E+00  0.0000E+00  0.0000E+00
     -9.225  0.0000E+00  0.0000E+00  0.0000E+00  0.0000E+00
     -9.150 -0.9556E-31 -0.9556E-31 -0.7180E-32 -0.7180E-32
     -9.075 -0.3526E-28 -0.3526E-28 -0.2657E-29 -0.2657E-29
     -9.000 -0.9809E-26 -0.9809E-26 -0.7396E-27 -0.7396E-27
     -8.924 -0.2051E-23 -0.2051E-23 -0.1549E-24 -0.1549E-24
     -8.849 -0.3225E-21 -0.3225E-21 -0.2438E-22 -0.2438E-22
     -8.774 -0.3808E-19 -0.3808E-19 -0.2886E-20 -0.2886E-20
     -8.699 -0.3275E-17 -0.3275E-17 -0.2489E-18 -0.2489E-18
     -8.624 -0.2175E-15 -0.2175E-15 -0.1659E-16 -0.1659E-16
     -8.549 -0.1079E-13 -0.1079E-13 -0.8274E-15 -0.8274E-15
     -8.474 -0.4007E-12 -0.4007E-12 -0.3094E-13 -0.3094E-13
     -8.398 -0.1111E-10 -0.1111E-10 -0.8660E-12 -0.8660E-12
     -8.323 -0.2298E-09 -0.2298E-09 -0.1813E-10 -0.1813E-10
     -8.248 -0.3531E-08 -0.3531E-08 -0.2834E-09 -0.2834E-09
     -8.173 -0.4020E-07 -0.4020E-07 -0.3304E-08 -0.3304E-08
     -8.098 -0.3375E-06 -0.3375E-06 -0.2866E-07 -0.2866E-07
     -8.023 -0.2077E-05 -0.2077E-05 -0.1847E-06 -0.1847E-06
     -7.948 -0.9280E-05 -0.9280E-05 -0.8820E-06 -0.8820E-06
     -7.873 -0.2957E-04 -0.2957E-04 -0.3104E-05 -0.3104E-05
     -7.797 -0.6415E-04 -0.6415E-04 -0.7924E-05 -0.7924E-05
     -7.722 -0.7812E-04 -0.7812E-04 -0.1379E-04 -0.1379E-04
     -7.647  0.3142E-04  0.3142E-04 -0.1143E-04 -0.1143E-04
     -7.572  0.4251E-03  0.4251E-03  0.2051E-04  0.2051E-04
     -7.497  0.1224E-02  0.1224E-02  0.1125E-03  0.1125E-03
     -7.422  0.2327E-02  0.2327E-02  0.2873E-03  0.2873E-03
     -7.347  0.3303E-02  0.3303E-02  0.5355E-03  0.5355E-03
     -7.271  0.3591E-02  0.3591E-02  0.8053E-03  0.8053E-03
     -7.196  0.2949E-02  0.2949E-02  0.1027E-02  0.1027E-02
     -7.121  0.1875E-02  0.1875E-02  0.1168E-02  0.1168E-02
     -7.046  0.1512E-02  0.1512E-02  0.1281E-02  0.1281E-02
     -6.971  0.2767E-02  0.2767E-02  0.1489E-02  0.1489E-02
     -6.896  0.5374E-02  0.5374E-02  0.1893E-02  0.1893E-02
     -6.821  0.7857E-02  0.7857E-02  0.2483E-02  0.2483E-02
     -6.746  0.8519E-02  0.8519E-02  0.3123E-02  0.3123E-02
     -6.670  0.6878E-02  0.6878E-02  0.3640E-02  0.3640E-02
     -6.595  0.4178E-02  0.4178E-02  0.3954E-02  0.3954E-02
     -6.520  0.2344E-02  0.2344E-02  0.4130E-02  0.4130E-02
     -6.445  0.2634E-02  0.2634E-02  0.4328E-02  0.4328E-02
     -6.370  0.4990E-02  0.4990E-02  0.4703E-02  0.4703E-02
     -6.295  0.8221E-02  0.8221E-02  0.5321E-02  0.5321E-02
     -6.220  0.1076E-01  0.1076E-01  0.6129E-02  0.6129E-02
     -6.144  0.1137E-01  0.1137E-01  0.6983E-02  0.6983E-02
     -6.069  0.9790E-02  0.9790E-02  0.7719E-02  0.7719E-02
     -5.994  0.7266E-02  0.7266E-02  0.8265E-02  0.8265E-02
     -5.919  0.5786E-02  0.5786E-02  0.8699E-02  0.8699E-02
     -5.844  0.6410E-02  0.6410E-02  0.9181E-02  0.9181E-02
     -5.769  0.8469E-02  0.8469E-02  0.9817E-02  0.9817E-02
     -5.694  0.1052E-01  0.1052E-01  0.1061E-01  0.1061E-01
     -5.619  0.1175E-01  0.1175E-01  0.1149E-01  0.1149E-01
     -5.543  0.1199E-01  0.1199E-01  0.1239E-01  0.1239E-01
     -5.468  0.1114E-01  0.1114E-01  0.1323E-01  0.1323E-01
     -5.393  0.9538E-02  0.9538E-02  0.1394E-01  0.1394E-01
     -5.318  0.8694E-02  0.8694E-02  0.1460E-01  0.1460E-01
     -5.243  0.9850E-02  0.9850E-02  0.1534E-01  0.1534E-01
     -5.168  0.1187E-01  0.1187E-01  0.1623E-01  0.1623E-01
     -5.093  0.1241E-01  0.1241E-01  0.1716E-01  0.1716E-01
     -5.017  0.1159E-01  0.1159E-01  0.1803E-01  0.1803E-01
     -4.942  0.1209E-01  0.1209E-01  0.1894E-01  0.1894E-01
     -4.867  0.1491E-01  0.1491E-01  0.2006E-01  0.2006E-01
     -4.792  0.1739E-01  0.1739E-01  0.2137E-01  0.2137E-01
     -4.717  0.1707E-01  0.1707E-01  0.2265E-01  0.2265E-01
     -4.642  0.1513E-01  0.1513E-01  0.2379E-01  0.2379E-01
     -4.567  0.1440E-01  0.1440E-01  0.2487E-01  0.2487E-01
     -4.491  0.1594E-01  0.1594E-01  0.2607E-01  0.2607E-01
     -4.416  0.1870E-01  0.1870E-01  0.2747E-01  0.2747E-01
     -4.341  0.2066E-01  0.2066E-01  0.2902E-01  0.2902E-01
     -4.266  0.2007E-01  0.2007E-01  0.3053E-01  0.3053E-01
     -4.191  0.1751E-01  0.1751E-01  0.3185E-01  0.3185E-01
     -4.116  0.1614E-01  0.1614E-01  0.3306E-01  0.3306E-01
     -4.041  0.1848E-01  0.1848E-01  0.3445E-01  0.3445E-01
     -3.966  0.2353E-01  0.2353E-01  0.3622E-01  0.3622E-01
     -3.890  0.2774E-01  0.2774E-01  0.3830E-01  0.3830E-01
     -3.815  0.2849E-01  0.2849E-01  0.4044E-01  0.4044E-01
     -3.740  0.2633E-01  0.2633E-01  0.4242E-01  0.4242E-01
     -3.665  0.2428E-01  0.2428E-01  0.4424E-01  0.4424E-01
     -3.590  0.2503E-01  0.2503E-01  0.4613E-01  0.4613E-01
     -3.515  0.2872E-01  0.2872E-01  0.4828E-01  0.4828E-01
     -3.440  0.3439E-01  0.3439E-01  0.5087E-01  0.5087E-01
     -3.364  0.4255E-01  0.4255E-01  0.5406E-01  0.5406E-01
     -3.289  0.5308E-01  0.5308E-01  0.5805E-01  0.5805E-01
     -3.214  0.6292E-01  0.6292E-01  0.6278E-01  0.6278E-01
     -3.139  0.6992E-01  0.6992E-01  0.6803E-01  0.6803E-01
     -3.064  0.7539E-01  0.7539E-01  0.7370E-01  0.7370E-01
     -2.989  0.8033E-01  0.8033E-01  0.7973E-01  0.7973E-01
     -2.914  0.8426E-01  0.8426E-01  0.8606E-01  0.8606E-01
     -2.839  0.8899E-01  0.8899E-01  0.9275E-01  0.9275E-01
     -2.763  0.9860E-01  0.9860E-01  0.1002E+00  0.1002E+00
     -2.688  0.1132E+00  0.1132E+00  0.1087E+00  0.1087E+00
     -2.613  0.1281E+00  0.1281E+00  0.1183E+00  0.1183E+00
     -2.538  0.1425E+00  0.1425E+00  0.1290E+00  0.1290E+00
     -2.463  0.1617E+00  0.1617E+00  0.1411E+00  0.1411E+00
     -2.388  0.1843E+00  0.1843E+00  0.1550E+00  0.1550E+00
     -2.313  0.2005E+00  0.2005E+00  0.1701E+00  0.1701E+00
     -2.237  0.2038E+00  0.2038E+00  0.1854E+00  0.1854E+00
     -2.162  0.1942E+00  0.1942E+00  0.2000E+00  0.2000E+00
     -2.087  0.1772E+00  0.1772E+00  0.2133E+00  0.2133E+00
     -2.012  0.1632E+00  0.1632E+00  0.2255E+00  0.2255E+00
     -1.937  0.1617E+00  0.1617E+00  0.2377E+00  0.2377E+00
     -1.862  0.1734E+00  0.1734E+00  0.2507E+00  0.2507E+00
     -1.787  0.1924E+00  0.1924E+00  0.2652E+00  0.2652E+00
     -1.712  0.2105E+00  0.2105E+00  0.2810E+00  0.2810E+00
     -1.636  0.2217E+00  0.2217E+00  0.2976E+00  0.2976E+00
     -1.561  0.2294E+00  0.2294E+00  0.3149E+00  0.3149E+00
     -1.486  0.2443E+00  0.2443E+00  0.3332E+00  0.3332E+00
     -1.411  0.2689E+00  0.2689E+00  0.3534E+00  0.3534E+00
     -1.336  0.2933E+00  0.2933E+00  0.3755E+00  0.3755E+00
     -1.261  0.3087E+00  0.3087E+00  0.3987E+00  0.3987E+00
     -1.186  0.3155E+00  0.3155E+00  0.4224E+00  0.4224E+00
     -1.110  0.3155E+00  0.3155E+00  0.4461E+00  0.4461E+00
     -1.035  0.3073E+00  0.3073E+00  0.4691E+00  0.4691E+00
     -0.960  0.2916E+00  0.2916E+00  0.4911E+00  0.4911E+00
     -0.885  0.2747E+00  0.2747E+00  0.5117E+00  0.5117E+00
     -0.810  0.2653E+00  0.2653E+00  0.5316E+00  0.5316E+00
     -0.735  0.2707E+00  0.2707E+00  0.5520E+00  0.5520E+00
     -0.660  0.2923E+00  0.2923E+00  0.5739E+00  0.5739E+00
     -0.585  0.3202E+00  0.3202E+00  0.5980E+00  0.5980E+00
     -0.509  0.3386E+00  0.3386E+00  0.6234E+00  0.6234E+00
     -0.434  0.3392E+00  0.3392E+00  0.6489E+00  0.6489E+00
     -0.359  0.3291E+00  0.3291E+00  0.6736E+00  0.6736E+00
     -0.284  0.3213E+00  0.3213E+00  0.6978E+00  0.6978E+00
     -0.209  0.3232E+00  0.3232E+00  0.7221E+00  0.7221E+00
     -0.134  0.3376E+00  0.3376E+00  0.7474E+00  0.7474E+00
     -0.059  0.3677E+00  0.3677E+00  0.7751E+00  0.7751E+00
      0.017  0.4106E+00  0.4106E+00  0.8059E+00  0.8059E+00
      0.092  0.4481E+00  0.4481E+00  0.8396E+00  0.8396E+00
      0.167  0.4518E+00  0.4518E+00  0.8735E+00  0.8735E+00
      0.242  0.4024E+00  0.4024E+00  0.9038E+00  0.9038E+00
      0.317  0.3060E+00  0.3060E+00  0.9267E+00  0.9267E+00
      0.392  0.1922E+00  0.1922E+00  0.9412E+00  0.9412E+00
      0.467  0.9826E-01  0.9826E-01  0.9486E+00  0.9486E+00
      0.542  0.4558E-01  0.4558E-01  0.9520E+00  0.9520E+00
      0.618  0.2948E-01  0.2948E-01  0.9542E+00  0.9542E+00
      0.693  0.3235E-01  0.3235E-01  0.9566E+00  0.9566E+00
      0.768  0.3939E-01  0.3939E-01  0.9596E+00  0.9596E+00
      0.843  0.4215E-01  0.4215E-01  0.9628E+00  0.9628E+00
      0.918  0.3856E-01  0.3856E-01  0.9657E+00  0.9657E+00
      0.993  0.3184E-01  0.3184E-01  0.9680E+00  0.9680E+00
      1.068  0.2495E-01  0.2495E-01  0.9699E+00  0.9699E+00
      1.144  0.1820E-01  0.1820E-01  0.9713E+00  0.9713E+00
      1.219  0.1401E-01  0.1401E-01  0.9723E+00  0.9723E+00
      1.294  0.1833E-01  0.1833E-01  0.9737E+00  0.9737E+00
      1.369  0.3291E-01  0.3291E-01  0.9762E+00  0.9762E+00
      1.444  0.4869E-01  0.4869E-01  0.9798E+00  0.9798E+00
      1.519  0.5313E-01  0.5313E-01  0.9838E+00  0.9838E+00
      1.594  0.4437E-01  0.4437E-01  0.9872E+00  0.9872E+00
      1.669  0.3181E-01  0.3181E-01  0.9896E+00  0.9896E+00
      1.745  0.2328E-01  0.2328E-01  0.9913E+00  0.9913E+00
      1.820  0.1937E-01  0.1937E-01  0.9928E+00  0.9928E+00
      1.895  0.1819E-01  0.1819E-01  0.9941E+00  0.9941E+00
      1.970  0.1794E-01  0.1794E-01  0.9955E+00  0.9955E+00
      2.045  0.1723E-01  0.1723E-01  0.9968E+00  0.9968E+00
      2.120  0.1738E-01  0.1738E-01  0.9981E+00  0.9981E+00
      2.195  0.2115E-01  0.2115E-01  0.9997E+00  0.9997E+00
      2.271  0.2784E-01  0.2784E-01  0.1002E+01  0.1002E+01
      2.346  0.3340E-01  0.3340E-01  0.1004E+01  0.1004E+01
      2.421  0.3491E-01  0.3491E-01  0.1007E+01  0.1007E+01
      2.496  0.3314E-01  0.3314E-01  0.1009E+01  0.1009E+01
      2.571  0.3118E-01  0.3118E-01  0.1012E+01  0.1012E+01
      2.646  0.3177E-01  0.3177E-01  0.1014E+01  0.1014E+01
      2.721  0.3450E-01  0.3450E-01  0.1017E+01  0.1017E+01
      2.796  0.3563E-01  0.3563E-01  0.1019E+01  0.1019E+01
      2.872  0.3230E-01  0.3230E-01  0.1022E+01  0.1022E+01
      2.947  0.2667E-01  0.2667E-01  0.1024E+01  0.1024E+01
      3.022  0.2269E-01  0.2269E-01  0.1026E+01  0.1026E+01
      3.097  0.1991E-01  0.1991E-01  0.1027E+01  0.1027E+01
      3.172  0.1487E-01  0.1487E-01  0.1028E+01  0.1028E+01
      3.247  0.7931E-02  0.7931E-02  0.1029E+01  0.1029E+01
      3.322  0.4573E-02  0.4573E-02  0.1029E+01  0.1029E+01
      3.398  0.9444E-02  0.9444E-02  0.1030E+01  0.1030E+01
      3.473  0.2129E-01  0.2129E-01  0.1031E+01  0.1031E+01
      3.548  0.3454E-01  0.3454E-01  0.1034E+01  0.1034E+01
      3.623  0.4385E-01  0.4385E-01  0.1037E+01  0.1037E+01
      3.698  0.4580E-01  0.4580E-01  0.1041E+01  0.1041E+01
      3.773  0.3927E-01  0.3927E-01  0.1044E+01  0.1044E+01
      3.848  0.2772E-01  0.2772E-01  0.1046E+01  0.1046E+01
      3.923  0.1887E-01  0.1887E-01  0.1047E+01  0.1047E+01
      3.999  0.1778E-01  0.1778E-01  0.1049E+01  0.1049E+01
      4.074  0.2185E-01  0.2185E-01  0.1050E+01  0.1050E+01
      4.149  0.2471E-01  0.2471E-01  0.1052E+01  0.1052E+01
      4.224  0.2344E-01  0.2344E-01  0.1054E+01  0.1054E+01
      4.299  0.1993E-01  0.1993E-01  0.1055E+01  0.1055E+01
      4.374  0.1712E-01  0.1712E-01  0.1057E+01  0.1057E+01
      4.449  0.1593E-01  0.1593E-01  0.1058E+01  0.1058E+01
      4.525  0.1551E-01  0.1551E-01  0.1059E+01  0.1059E+01
      4.600  0.1565E-01  0.1565E-01  0.1060E+01  0.1060E+01
      4.675  0.1723E-01  0.1723E-01  0.1061E+01  0.1061E+01
      4.750  0.1967E-01  0.1967E-01  0.1063E+01  0.1063E+01
      4.825  0.2037E-01  0.2037E-01  0.1064E+01  0.1064E+01
      4.900  0.1881E-01  0.1881E-01  0.1066E+01  0.1066E+01
      4.975  0.1806E-01  0.1806E-01  0.1067E+01  0.1067E+01
      5.051  0.2010E-01  0.2010E-01  0.1069E+01  0.1069E+01
      5.126  0.2355E-01  0.2355E-01  0.1070E+01  0.1070E+01
      5.201  0.2744E-01  0.2744E-01  0.1072E+01  0.1072E+01
      5.276  0.3265E-01  0.3265E-01  0.1075E+01  0.1075E+01
      5.351  0.3778E-01  0.3778E-01  0.1078E+01  0.1078E+01
      5.426  0.3841E-01  0.3841E-01  0.1081E+01  0.1081E+01
      5.501  0.3244E-01  0.3244E-01  0.1083E+01  0.1083E+01
      5.576  0.2299E-01  0.2299E-01  0.1085E+01  0.1085E+01
      5.652  0.1614E-01  0.1614E-01  0.1086E+01  0.1086E+01
      5.727  0.1716E-01  0.1716E-01  0.1087E+01  0.1087E+01
      5.802  0.2587E-01  0.2587E-01  0.1089E+01  0.1089E+01
      5.877  0.3479E-01  0.3479E-01  0.1092E+01  0.1092E+01
      5.952  0.3615E-01  0.3615E-01  0.1095E+01  0.1095E+01
      6.027  0.3055E-01  0.3055E-01  0.1097E+01  0.1097E+01
      6.102  0.2421E-01  0.2421E-01  0.1099E+01  0.1099E+01
      6.178  0.2024E-01  0.2024E-01  0.1100E+01  0.1100E+01
      6.253  0.1778E-01  0.1778E-01  0.1102E+01  0.1102E+01
      6.328  0.1666E-01  0.1666E-01  0.1103E+01  0.1103E+01
      6.403  0.1814E-01  0.1814E-01  0.1104E+01  0.1104E+01
      6.478  0.2257E-01  0.2257E-01  0.1106E+01  0.1106E+01
      6.553  0.2904E-01  0.2904E-01  0.1108E+01  0.1108E+01
      6.628  0.3659E-01  0.3659E-01  0.1111E+01  0.1111E+01
      6.703  0.4404E-01  0.4404E-01  0.1114E+01  0.1114E+01
      6.779  0.4935E-01  0.4935E-01  0.1118E+01  0.1118E+01
      6.854  0.5048E-01  0.5048E-01  0.1122E+01  0.1122E+01
      6.929  0.4668E-01  0.4668E-01  0.1125E+01  0.1125E+01
      7.004  0.3866E-01  0.3866E-01  0.1128E+01  0.1128E+01
      7.079  0.2890E-01  0.2890E-01  0.1130E+01  0.1130E+01
      7.154  0.2170E-01  0.2170E-01  0.1132E+01  0.1132E+01
      7.229  0.2058E-01  0.2058E-01  0.1133E+01  0.1133E+01
      7.305  0.2516E-01  0.2516E-01  0.1135E+01  0.1135E+01
      7.380  0.3193E-01  0.3193E-01  0.1138E+01  0.1138E+01
      7.455  0.3778E-01  0.3779E-01  0.1141E+01  0.1141E+01
      7.530  0.4093E-01  0.4093E-01  0.1144E+01  0.1144E+01
      7.605  0.3953E-01  0.3953E-01  0.1147E+01  0.1147E+01
      7.680  0.3353E-01  0.3353E-01  0.1149E+01  0.1149E+01
      7.755  0.2717E-01  0.2717E-01  0.1151E+01  0.1151E+01
      7.830  0.2551E-01  0.2551E-01  0.1153E+01  0.1153E+01
      7.906  0.2895E-01  0.2895E-01  0.1155E+01  0.1155E+01
      7.981  0.3357E-01  0.3357E-01  0.1158E+01  0.1158E+01
      8.056  0.3601E-01  0.3601E-01  0.1160E+01  0.1160E+01
      8.131  0.3655E-01  0.3655E-01  0.1163E+01  0.1163E+01
      8.206  0.3741E-01  0.3741E-01  0.1166E+01  0.1166E+01
      8.281  0.3872E-01  0.3872E-01  0.1169E+01  0.1169E+01
      8.356  0.3794E-01  0.3794E-01  0.1172E+01  0.1172E+01
      8.432  0.3399E-01  0.3399E-01  0.1174E+01  0.1174E+01
      8.507  0.2934E-01  0.2934E-01  0.1177E+01  0.1177E+01
      8.582  0.2770E-01  0.2770E-01  0.1179E+01  0.1179E+01
      8.657  0.3101E-01  0.3101E-01  0.1181E+01  0.1181E+01
      8.732  0.3748E-01  0.3748E-01  0.1184E+01  0.1184E+01
      8.807  0.4289E-01  0.4289E-01  0.1187E+01  0.1187E+01
      8.882  0.4542E-01  0.4542E-01  0.1190E+01  0.1190E+01
      8.957  0.4621E-01  0.4621E-01  0.1194E+01  0.1194E+01
      9.033  0.4516E-01  0.4516E-01  0.1197E+01  0.1197E+01
      9.108  0.4084E-01  0.4084E-01  0.1200E+01  0.1200E+01
      9.183  0.3405E-01  0.3405E-01  0.1203E+01  0.1203E+01
      9.258  0.2864E-01  0.2864E-01  0.1205E+01  0.1205E+01
      9.333  0.2880E-01  0.2880E-01  0.1207E+01  0.1207E+01
      9.408  0.3487E-01  0.3487E-01  0.1210E+01  0.1210E+01
      9.483  0.4158E-01  0.4158E-01  0.1213E+01  0.1213E+01
      9.559  0.4348E-01  0.4348E-01  0.1216E+01  0.1216E+01
      9.634  0.4167E-01  0.4167E-01  0.1219E+01  0.1219E+01
      9.709  0.4100E-01  0.4100E-01  0.1222E+01  0.1222E+01
      9.784  0.4267E-01  0.4267E-01  0.1226E+01  0.1226E+01
      9.859  0.4359E-01  0.4359E-01  0.1229E+01  0.1229E+01
      9.934  0.4150E-01  0.4150E-01  0.1232E+01  0.1232E+01
     10.009  0.3809E-01  0.3809E-01  0.1235E+01  0.1235E+01
     10.084  0.3694E-01  0.3694E-01  0.1238E+01  0.1238E+01
     10.160  0.3929E-01  0.3930E-01  0.1241E+01  0.1241E+01
     10.235  0.4380E-01  0.4380E-01  0.1244E+01  0.1244E+01
     10.310  0.4916E-01  0.4916E-01  0.1248E+01  0.1248E+01
     10.385  0.5327E-01  0.5327E-01  0.1252E+01  0.1252E+01
     10.460  0.5262E-01  0.5262E-01  0.1256E+01  0.1256E+01
     10.535  0.4753E-01  0.4753E-01  0.1259E+01  0.1259E+01
     10.610  0.4407E-01  0.4407E-01  0.1262E+01  0.1262E+01
     10.686  0.4664E-01  0.4663E-01  0.1266E+01  0.1266E+01
     10.761  0.5152E-01  0.5153E-01  0.1270E+01  0.1270E+01
     10.836  0.5098E-01  0.5103E-01  0.1274E+01  0.1274E+01
     10.911  0.4172E-01  0.4181E-01  0.1277E+01  0.1277E+01
     10.986  0.2733E-01  0.2740E-01  0.1279E+01  0.1279E+01
     11.061  0.1370E-01  0.1368E-01  0.1280E+01  0.1280E+01
     11.136  0.4417E-02  0.4326E-02  0.1280E+01  0.1280E+01
     11.211 -0.3279E-04 -0.1189E-03  0.1280E+01  0.1280E+01
     11.287 -0.1120E-02 -0.1157E-02  0.1280E+01  0.1280E+01
     11.362 -0.7977E-03 -0.7996E-03  0.1280E+01  0.1280E+01
     11.437 -0.3336E-03 -0.3275E-03  0.1280E+01  0.1280E+01
     11.512 -0.9559E-04 -0.9200E-04  0.1280E+01  0.1280E+01
     11.587 -0.1963E-04 -0.1851E-04  0.1280E+01  0.1280E+01
     11.662 -0.2944E-05 -0.2720E-05  0.1280E+01  0.1280E+01
     11.737 -0.3259E-06 -0.2948E-06  0.1280E+01  0.1280E+01
     11.813 -0.2680E-07 -0.2371E-07  0.1280E+01  0.1280E+01
     11.888 -0.1644E-08 -0.1421E-08  0.1280E+01  0.1280E+01
     11.963 -0.7539E-10 -0.6363E-10  0.1280E+01  0.1280E+01
     12.038 -0.2591E-11 -0.2133E-11  0.1280E+01  0.1280E+01
     12.113 -0.6684E-13 -0.5364E-13  0.1280E+01  0.1280E+01
     12.188 -0.1297E-14 -0.1015E-14  0.1280E+01  0.1280E+01
     12.263 -0.1806E-16 -0.1313E-16  0.1280E+01  0.1280E+01
     12.338  0.0000E+00  0.0000E+00  0.1280E+01  0.1280E+01
     12.414  0.0000E+00  0.0000E+00  0.1280E+01  0.1280E+01
     12.489  0.0000E+00  0.0000E+00  0.1280E+01  0.1280E+01
     12.564  0.0000E+00  0.0000E+00  0.1280E+01  0.1280E+01
     12.639  0.0000E+00  0.0000E+00  0.1280E+01  0.1280E+01
     12.714  0.0000E+00  0.0000E+00  0.1280E+01  0.1280E+01
     12.789  0.0000E+00  0.0000E+00  0.1280E+01  0.1280E+01
     12.864  0.0000E+00  0.0000E+00  0.1280E+01  0.1280E+01
     12.940  0.0000E+00  0.0000E+00  0.1280E+01  0.1280E+01
     13.015  0.0000E+00  0.0000E+00  0.1280E+01  0.1280E+01
