  146  146  800    2
  0.2250407E+02  0.1089000E-08  0.1089000E-08  0.2770500E-08  0.5000000E-15
  1.000000000000000E-004
  CAR 
 unknown system                          
   1586      3   1024
 
  0.0000000E+00  0.0000000E+00  0.0000000E+00  0.1111111E+00
      1         -7.525465       -7.525465   1.000000   1.000000
      2         -6.914990       -6.914990   1.000000   1.000000
      3         -6.235985       -6.235985   1.000000   1.000000
      4         -6.235921       -6.235921   1.000000   1.000000
      5         -6.235566       -6.235566   1.000000   1.000000
      6         -6.235566       -6.235566   1.000000   1.000000
      7         -6.099414       -6.099414   1.000000   1.000000
      8         -5.663336       -5.663336   1.000000   1.000000
      9         -5.661309       -5.661309   1.000000   1.000000
     10         -5.660684       -5.660684   1.000000   1.000000
     11         -5.660684       -5.660684   1.000000   1.000000
     12         -5.079514       -5.079514   1.000000   1.000000
     13         -5.078555       -5.078555   1.000000   1.000000
     14         -5.078215       -5.078215   1.000000   1.000000
     15         -5.078215       -5.078215   1.000000   1.000000
     16         -5.054010       -5.054010   1.000000   1.000000
     17         -4.922444       -4.922444   1.000000   1.000000
     18         -4.910153       -4.910153   1.000000   1.000000
     19         -4.910153       -4.910153   1.000000   1.000000
     20         -4.909878       -4.909878   1.000000   1.000000
     21         -4.616286       -4.616286   1.000000   1.000000
     22         -4.610598       -4.610598   1.000000   1.000000
     23         -4.610451       -4.610451   1.000000   1.000000
     24         -4.610451       -4.610451   1.000000   1.000000
     25         -4.385912       -4.385912   1.000000   1.000000
     26         -4.067761       -4.067761   1.000000   1.000000
     27         -4.067761       -4.067761   1.000000   1.000000
     28         -4.067436       -4.067436   1.000000   1.000000
     29         -4.063021       -4.063021   1.000000   1.000000
     30         -3.980407       -3.980407   1.000000   1.000000
     31         -3.980085       -3.980085   1.000000   1.000000
     32         -3.980085       -3.980085   1.000000   1.000000
     33         -3.962327       -3.962327   1.000000   1.000000
     34         -3.913662       -3.913662   1.000000   1.000000
     35         -3.525176       -3.525176   1.000000   1.000000
     36         -3.525044       -3.525044   1.000000   1.000000
     37         -3.525044       -3.525044   1.000000   1.000000
     38         -3.524957       -3.524957   1.000000   1.000000
     39         -3.502252       -3.502252   1.000000   1.000000
     40         -3.502252       -3.502252   1.000000   1.000000
     41         -3.501748       -3.501748   1.000000   1.000000
     42         -3.498727       -3.498727   1.000000   1.000000
     43         -3.279889       -3.279889   1.000000   1.000000
     44         -3.131838       -3.131838   1.000000   1.000000
     45         -3.121836       -3.121836   1.000000   1.000000
     46         -3.105484       -3.105484   1.000000   1.000000
     47         -3.105484       -3.105484   1.000000   1.000000
     48         -3.105478       -3.105478   1.000000   1.000000
     49         -3.105468       -3.105468   1.000000   1.000000
     50         -3.063300       -3.063300   1.000000   1.000000
     51         -3.063300       -3.063300   1.000000   1.000000
     52         -3.063116       -3.063116   1.000000   1.000000
     53         -3.055542       -3.055542   1.000000   1.000000
     54         -3.036555       -3.036555   1.000000   1.000000
     55         -3.008443       -3.008443   1.000000   1.000000
     56         -3.008443       -3.008443   1.000000   1.000000
     57         -3.007598       -3.007598   1.000000   1.000000
     58         -3.004326       -3.004326   1.000000   1.000000
     59         -2.998682       -2.998682   1.000000   1.000000
     60         -2.998682       -2.998682   1.000000   1.000000
     61         -2.998338       -2.998338   1.000000   1.000000
     62         -2.998326       -2.998326   1.000000   1.000000
     63         -2.996144       -2.996144   1.000000   1.000000
     64         -2.996047       -2.996047   1.000000   1.000000
     65         -2.995635       -2.995635   1.000000   1.000000
     66         -2.995635       -2.995635   1.000000   1.000000
     67         -2.934366       -2.934366   1.000000   1.000000
     68         -2.932931       -2.932931   1.000000   1.000000
     69         -2.932822       -2.932822   1.000000   1.000000
     70         -2.932453       -2.932453   1.000000   1.000000
     71         -2.932453       -2.932453   1.000000   1.000000
     72         -2.859789       -2.859789   1.000000   1.000000
     73         -2.859789       -2.859789   1.000000   1.000000
     74         -2.859015       -2.859015   1.000000   1.000000
     75         -2.858839       -2.858839   1.000000   1.000000
     76         -2.839113       -2.839113   1.000000   1.000000
     77         -2.839051       -2.839051   1.000000   1.000000
     78         -2.838785       -2.838785   1.000000   1.000000
     79         -2.838785       -2.838785   1.000000   1.000000
     80         -2.834029       -2.834029   1.000000   1.000000
     81         -2.805321       -2.805321   1.000000   1.000000
     82         -2.695329       -2.695329   1.000000   1.000000
     83         -2.673592       -2.673592   1.000000   1.000000
     84         -2.673129       -2.673129   1.000000   1.000000
     85         -2.673042       -2.673042   1.000000   1.000000
     86         -2.673042       -2.673042   1.000000   1.000000
     87         -2.672970       -2.672970   1.000000   1.000000
     88         -2.672728       -2.672728   1.000000   1.000000
     89         -2.672728       -2.672728   1.000000   1.000000
     90         -2.672322       -2.672322   1.000000   1.000000
     91         -2.668625       -2.668625   1.000000   1.000000
     92         -2.668625       -2.668625   1.000000   1.000000
     93         -2.657240       -2.657240   1.000000   1.000000
     94         -2.656820       -2.656820   1.000000   1.000000
     95         -2.656820       -2.656820   1.000000   1.000000
     96         -2.656752       -2.656752   1.000000   1.000000
     97         -2.637096       -2.637096   1.000000   1.000000
     98         -2.637096       -2.637096   1.000000   1.000000
     99         -2.636753       -2.636753   1.000000   1.000000
    100         -2.634844       -2.634844   1.000000   1.000000
    101         -2.618633       -2.618633   1.000000   1.000000
    102         -2.618557       -2.618557   1.000000   1.000000
    103         -2.618557       -2.618557   1.000000   1.000000
    104         -2.618463       -2.618463   1.000000   1.000000
    105         -2.557218       -2.557218   1.000000   1.000000
    106         -2.514484       -2.514484   1.000000   1.000000
    107         -2.480332       -2.480332   1.000000   1.000000
    108         -2.450086       -2.450086   1.000000   1.000000
    109         -2.450086       -2.450086   1.000000   1.000000
    110         -2.412675       -2.412675   1.000000   1.000000
    111         -2.412675       -2.412675   1.000000   1.000000
    112         -2.410579       -2.410579   1.000000   1.000000
    113         -2.410185       -2.410185   1.000000   1.000000
    114         -2.408504       -2.408504   1.000000   1.000000
    115         -2.408504       -2.408504   1.000000   1.000000
    116         -2.407189       -2.407189   1.000000   1.000000
    117         -2.400254       -2.400254   1.000000   1.000000
    118         -2.388508       -2.388508   1.000000   1.000000
    119         -2.387941       -2.387941   1.000000   1.000000
    120         -2.387941       -2.387941   1.000000   1.000000
    121         -2.387499       -2.387499   1.000000   1.000000
    122         -2.356914       -2.356914   1.000000   1.000000
    123         -2.356591       -2.356591   1.000000   1.000000
    124         -2.356591       -2.356591   1.000000   1.000000
    125         -2.356448       -2.356448   1.000000   1.000000
    126         -2.331567       -2.331567   1.000000   1.000000
    127         -2.331567       -2.331567   1.000000   1.000000
    128         -2.331237       -2.331237   1.000000   1.000000
    129         -2.325935       -2.325935   1.000000   1.000000
    130         -2.325582       -2.325582   1.000000   1.000000
    131         -2.325454       -2.325454   1.000000   1.000000
    132         -2.325454       -2.325454   1.000000   1.000000
    133         -2.324943       -2.324943   1.000000   1.000000
    134         -2.321855       -2.321855   1.000000   1.000000
    135         -2.321624       -2.321624   1.000000   1.000000
    136         -2.321624       -2.321624   1.000000   1.000000
    137         -2.321541       -2.321541   1.000000   1.000000
    138         -2.295296       -2.295296   1.000000   1.000000
    139         -2.294687       -2.294687   1.000000   1.000000
    140         -2.294687       -2.294687   1.000000   1.000000
    141         -2.294293       -2.294293   1.000000   1.000000
    142         -2.283437       -2.283437   1.000000   1.000000
    143         -2.283417       -2.283417   1.000000   1.000000
    144         -2.283160       -2.283160   1.000000   1.000000
    145         -2.283160       -2.283160   1.000000   1.000000
    146         -2.257458       -2.257458   1.000000   1.000000
    147         -2.257305       -2.257305   1.000000   1.000000
    148         -2.257162       -2.257162   1.000000   1.000000
    149         -2.257162       -2.257162   1.000000   1.000000
    150         -2.252830       -2.252830   1.000000   1.000000
    151         -2.252830       -2.252830   1.000000   1.000000
    152         -2.252685       -2.252685   1.000000   1.000000
    153         -2.252557       -2.252557   1.000000   1.000000
    154         -2.238008       -2.238008   1.000000   1.000000
    155         -2.193949       -2.193949   1.000000   1.000000
    156         -2.193949       -2.193949   1.000000   1.000000
    157         -2.193867       -2.193867   1.000000   1.000000
    158         -2.193643       -2.193643   1.000000   1.000000
    159         -2.186457       -2.186457   1.000000   1.000000
    160         -2.186095       -2.186095   1.000000   1.000000
    161         -2.186095       -2.186095   1.000000   1.000000
    162         -2.185922       -2.185922   1.000000   1.000000
    163         -2.167093       -2.167093   1.000000   1.000000
    164         -2.166917       -2.166917   1.000000   1.000000
    165         -2.166917       -2.166917   1.000000   1.000000
    166         -2.166590       -2.166590   1.000000   1.000000
    167         -2.165025       -2.165025   1.000000   1.000000
    168         -2.164941       -2.164941   1.000000   1.000000
    169         -2.164941       -2.164941   1.000000   1.000000
    170         -2.164827       -2.164827   1.000000   1.000000
    171         -2.162942       -2.162942   1.000000   1.000000
    172         -2.162942       -2.162942   1.000000   1.000000
    173         -2.133196       -2.133196   1.000000   1.000000
    174         -2.133175       -2.133175   1.000000   1.000000
    175         -2.133092       -2.133092   1.000000   1.000000
    176         -2.133092       -2.133092   1.000000   1.000000
    177         -2.042376       -2.042376   1.000000   1.000000
    178         -2.025371       -2.025371   1.000000   1.000000
    179         -2.025320       -2.025320   1.000000   1.000000
    180         -2.025320       -2.025320   1.000000   1.000000
    181         -2.025293       -2.025293   1.000000   1.000000
    182         -1.996181       -1.996181   1.000000   1.000000
    183         -1.995643       -1.995643   1.000000   1.000000
    184         -1.995643       -1.995643   1.000000   1.000000
    185         -1.995345       -1.995345   1.000000   1.000000
    186         -1.973159       -1.973159   1.000000   1.000000
    187         -1.973159       -1.973159   1.000000   1.000000
    188         -1.973076       -1.973076   1.000000   1.000000
    189         -1.972997       -1.972997   1.000000   1.000000
    190         -1.963542       -1.963542   1.000000   1.000000
    191         -1.938675       -1.938675   1.000000   1.000000
    192         -1.935516       -1.935516   1.000000   1.000000
    193         -1.935516       -1.935516   1.000000   1.000000
    194         -1.935183       -1.935183   1.000000   1.000000
    195         -1.935166       -1.935166   1.000000   1.000000
    196         -1.934465       -1.934465   1.000000   1.000000
    197         -1.934249       -1.934249   1.000000   1.000000
    198         -1.934074       -1.934074   1.000000   1.000000
    199         -1.934074       -1.934074   1.000000   1.000000
    200         -1.850619       -1.850619   1.000000   1.000000
    201         -1.850466       -1.850466   1.000000   1.000000
    202         -1.850174       -1.850174   1.000000   1.000000
    203         -1.850174       -1.850174   1.000000   1.000000
    204         -1.838076       -1.838076   1.000000   1.000000
    205         -1.838056       -1.838056   1.000000   1.000000
    206         -1.837898       -1.837898   1.000000   1.000000
    207         -1.837898       -1.837898   1.000000   1.000000
    208         -1.789615       -1.789615   1.000000   1.000000
    209         -1.789615       -1.789615   1.000000   1.000000
    210         -1.774275       -1.774275   1.000000   1.000000
    211         -1.773571       -1.773571   1.000000   1.000000
    212         -1.773571       -1.773571   1.000000   1.000000
    213         -1.773481       -1.773481   1.000000   1.000000
    214         -1.764543       -1.764543   1.000000   1.000000
    215         -1.764095       -1.764095   1.000000   1.000000
    216         -1.763220       -1.763220   1.000000   1.000000
    217         -1.763220       -1.763220   1.000000   1.000000
    218         -1.750135       -1.750135   1.000000   1.000000
    219         -1.750072       -1.750072   1.000000   1.000000
    220         -1.749427       -1.749427   1.000000   1.000000
    221         -1.749427       -1.749427   1.000000   1.000000
    222         -1.734508       -1.734508   1.000000   1.000000
    223         -1.734314       -1.734314   1.000000   1.000000
    224         -1.734314       -1.734314   1.000000   1.000000
    225         -1.733910       -1.733910   1.000000   1.000000
    226         -1.731949       -1.731949   1.000000   1.000000
    227         -1.731772       -1.731772   1.000000   1.000000
    228         -1.731772       -1.731772   1.000000   1.000000
    229         -1.731451       -1.731451   1.000000   1.000000
    230         -1.663768       -1.663768   1.000000   1.000000
    231         -1.663240       -1.663240   1.000000   1.000000
    232         -1.663205       -1.663205   1.000000   1.000000
    233         -1.663205       -1.663205   1.000000   1.000000
    234         -1.658884       -1.658884   1.000000   1.000000
    235         -1.658884       -1.658884   1.000000   1.000000
    236         -1.658823       -1.658823   1.000000   1.000000
    237         -1.658741       -1.658741   1.000000   1.000000
    238         -1.644221       -1.644221   1.000000   1.000000
    239         -1.640517       -1.640517   1.000000   1.000000
    240         -1.640399       -1.640399   1.000000   1.000000
    241         -1.640192       -1.640192   1.000000   1.000000
    242         -1.640192       -1.640192   1.000000   1.000000
    243         -1.633125       -1.633125   1.000000   1.000000
    244         -1.633090       -1.633090   1.000000   1.000000
    245         -1.632613       -1.632613   1.000000   1.000000
    246         -1.632613       -1.632613   1.000000   1.000000
    247         -1.600339       -1.600339   1.000000   1.000000
    248         -1.598836       -1.598836   1.000000   1.000000
    249         -1.598836       -1.598836   1.000000   1.000000
    250         -1.597244       -1.597244   1.000000   1.000000
    251         -1.547564       -1.547564   1.000000   1.000000
    252         -1.547564       -1.547564   1.000000   1.000000
    253         -1.546885       -1.546885   1.000000   1.000000
    254         -1.546401       -1.546401   1.000000   1.000000
    255         -1.533629       -1.533629   1.000000   1.000000
    256         -1.533606       -1.533606   1.000000   1.000000
    257         -1.533606       -1.533606   1.000000   1.000000
    258         -1.533420       -1.533420   1.000000   1.000000
    259         -1.475431       -1.475431   1.000000   1.000000
    260         -1.475105       -1.475105   1.000000   1.000000
    261         -1.475105       -1.475105   1.000000   1.000000
    262         -1.474747       -1.474747   1.000000   1.000000
    263         -1.473758       -1.473758   1.000000   1.000000
    264         -1.473758       -1.473758   1.000000   1.000000
    265         -1.472295       -1.472295   1.000000   1.000000
    266         -1.472217       -1.472217   1.000000   1.000000
    267         -1.466547       -1.466547   1.000000   1.000000
    268         -1.466532       -1.466532   1.000000   1.000000
    269         -1.466069       -1.466069   1.000000   1.000000
    270         -1.466069       -1.466069   1.000000   1.000000
    271         -1.438138       -1.438138   1.000000   1.000000
    272         -1.437714       -1.437714   1.000000   1.000000
    273         -1.437714       -1.437714   1.000000   1.000000
    274         -1.436759       -1.436759   1.000000   1.000000
    275         -1.429594       -1.429594   1.000000   1.000000
    276         -1.429272       -1.429272   1.000000   1.000000
    277         -1.429272       -1.429272   1.000000   1.000000
    278         -1.428028       -1.428028   1.000000   1.000000
    279         -1.398694       -1.398694   1.000000   1.000000
    280         -1.398633       -1.398633   1.000000   1.000000
    281         -1.398044       -1.398044   1.000000   1.000000
    282         -1.398044       -1.398044   1.000000   1.000000
    283         -1.382065       -1.382065   1.000000   1.000000
    284         -1.381440       -1.381440   1.000000   1.000000
    285         -1.380695       -1.380695   1.000000   1.000000
    286         -1.380695       -1.380695   1.000000   1.000000
    287         -1.379771       -1.379771   1.000000   1.000000
    288         -1.379565       -1.379565   1.000000   1.000000
    289         -1.379565       -1.379565   1.000000   1.000000
    290         -1.377097       -1.377097   1.000000   1.000000
    291         -1.376883       -1.376883   1.000000   1.000000
    292         -1.318271       -1.318271   1.000000   1.000000
    293         -1.317941       -1.317941   1.000000   1.000000
    294         -1.317861       -1.317861   1.000000   1.000000
    295         -1.317861       -1.317861   1.000000   1.000000
    296         -1.297935       -1.297935   1.000000   1.000000
    297         -1.297935       -1.297935   1.000000   1.000000
    298         -1.289691       -1.289691   1.000000   1.000000
    299         -1.289691       -1.289691   1.000000   1.000000
    300         -1.289332       -1.289332   1.000000   1.000000
    301         -1.289232       -1.289232   1.000000   1.000000
    302         -1.286904       -1.286904   1.000000   1.000000
    303         -1.286904       -1.286904   1.000000   1.000000
    304         -1.262193       -1.262193   1.000000   1.000000
    305         -1.262181       -1.262181   1.000000   1.000000
    306         -1.261425       -1.261425   1.000000   1.000000
    307         -1.261425       -1.261425   1.000000   1.000000
    308         -1.259073       -1.259073   1.000000   1.000000
    309         -1.258718       -1.258718   1.000000   1.000000
    310         -1.258718       -1.258718   1.000000   1.000000
    311         -1.258624       -1.258624   1.000000   1.000000
    312         -1.257690       -1.257690   1.000000   1.000000
    313         -1.257690       -1.257690   1.000000   1.000000
    314         -1.256592       -1.256592   1.000000   1.000000
    315         -1.256218       -1.256218   1.000000   1.000000
    316         -1.252234       -1.252234   1.000000   1.000000
    317         -1.252234       -1.252234   1.000000   1.000000
    318         -1.252102       -1.252102   1.000000   1.000000
    319         -1.252090       -1.252090   1.000000   1.000000
    320         -1.251945       -1.251945   1.000000   1.000000
    321         -1.251830       -1.251830   1.000000   1.000000
    322         -1.251830       -1.251830   1.000000   1.000000
    323         -1.251210       -1.251210   1.000000   1.000000
    324         -1.229325       -1.229325   1.000000   1.000000
    325         -1.229325       -1.229325   1.000000   1.000000
    326         -1.228848       -1.228848   1.000000   1.000000
    327         -1.228771       -1.228771   1.000000   1.000000
    328         -1.219643       -1.219643   1.000000   1.000000
    329         -1.195479       -1.195479   1.000000   1.000000
    330         -1.195324       -1.195324   1.000000   1.000000
    331         -1.195324       -1.195324   1.000000   1.000000
    332         -1.194502       -1.194502   1.000000   1.000000
    333         -1.186698       -1.186698   1.000000   1.000000
    334         -1.186698       -1.186698   1.000000   1.000000
    335         -1.186667       -1.186667   1.000000   1.000000
    336         -1.186556       -1.186556   1.000000   1.000000
    337         -1.183919       -1.183919   1.000000   1.000000
    338         -1.183919       -1.183919   1.000000   1.000000
    339         -1.183446       -1.183446   1.000000   1.000000
    340         -1.183332       -1.183332   1.000000   1.000000
    341         -1.182707       -1.182707   1.000000   1.000000
    342         -1.182404       -1.182404   1.000000   1.000000
    343         -1.182404       -1.182404   1.000000   1.000000
    344         -1.181260       -1.181260   1.000000   1.000000
    345         -1.164875       -1.164875   1.000000   1.000000
    346         -1.141764       -1.141764   1.000000   1.000000
    347         -1.141710       -1.141710   1.000000   1.000000
    348         -1.141710       -1.141710   1.000000   1.000000
    349         -1.141046       -1.141046   1.000000   1.000000
    350         -1.131419       -1.131419   1.000000   1.000000
    351         -1.131317       -1.131317   1.000000   1.000000
    352         -1.131317       -1.131317   1.000000   1.000000
    353         -1.131145       -1.131145   1.000000   1.000000
    354         -1.122486       -1.122486   1.000000   1.000000
    355         -1.122486       -1.122486   1.000000   1.000000
    356         -1.122446       -1.122446   1.000000   1.000000
    357         -1.122323       -1.122323   1.000000   1.000000
    358         -1.107779       -1.107779   1.000000   1.000000
    359         -1.107779       -1.107779   1.000000   1.000000
    360         -1.105289       -1.105289   1.000000   1.000000
    361         -1.105289       -1.105289   1.000000   1.000000
    362         -1.104930       -1.104930   1.000000   1.000000
    363         -1.104715       -1.104715   1.000000   1.000000
    364         -1.098196       -1.098196   1.000000   1.000000
    365         -1.096183       -1.096183   1.000000   1.000000
    366         -1.096183       -1.096183   1.000000   1.000000
    367         -1.095012       -1.095012   1.000000   1.000000
    368         -1.087155       -1.087155   1.000000   1.000000
    369         -1.087155       -1.087155   1.000000   1.000000
    370         -1.086420       -1.086420   1.000000   1.000000
    371         -1.086134       -1.086134   1.000000   1.000000
    372         -1.086117       -1.086117   1.000000   1.000000
    373         -1.086092       -1.086092   1.000000   1.000000
    374         -1.086092       -1.086092   1.000000   1.000000
    375         -1.086003       -1.086003   1.000000   1.000000
    376         -1.080044       -1.080044   1.000000   1.000000
    377         -1.080044       -1.080044   1.000000   1.000000
    378         -1.080000       -1.080000   1.000000   1.000000
    379         -1.079887       -1.079887   1.000000   1.000000
    380         -1.060484       -1.060484   1.000000   1.000000
    381         -1.060484       -1.060484   1.000000   1.000000
    382         -1.060341       -1.060341   1.000000   1.000000
    383         -1.060165       -1.060164   1.000000   1.000000
    384         -1.039459       -1.039459   1.000000   1.000000
    385         -1.039459       -1.039459   1.000000   1.000000
    386         -1.039390       -1.039390   1.000000   1.000000
    387         -1.039358       -1.039358   1.000000   1.000000
    388         -1.012815       -1.012815   1.000000   1.000000
    389         -1.012189       -1.012189   1.000000   1.000000
    390         -1.012189       -1.012189   1.000000   1.000000
    391         -1.011699       -1.011699   1.000000   1.000000
    392         -0.917070       -0.917070   1.000000   1.000000
    393         -0.916646       -0.916646   1.000000   1.000000
    394         -0.916646       -0.916646   1.000000   1.000000
    395         -0.916602       -0.916602   1.000000   1.000000
    396         -0.913798       -0.913798   1.000000   1.000000
    397         -0.913798       -0.913798   1.000000   1.000000
    398         -0.912858       -0.912858   1.000000   1.000000
    399         -0.912650       -0.912650   1.000000   1.000000
    400         -0.895115       -0.895115   1.000000   1.000000
    401         -0.895115       -0.895115   1.000000   1.000000
    402         -0.894184       -0.894184   1.000000   1.000000
    403         -0.893004       -0.893004   1.000000   1.000000
    404         -0.889508       -0.889509   1.000000   1.000000
    405         -0.889508       -0.889508   1.000000   1.000000
    406         -0.889390       -0.889390   1.000000   1.000000
    407         -0.889309       -0.889309   1.000000   1.000000
    408         -0.883349       -0.883349   1.000000   1.000000
    409         -0.883349       -0.883349   1.000000   1.000000
    410         -0.882397       -0.882397   1.000000   1.000000
    411         -0.882277       -0.882277   1.000000   1.000000
    412         -0.874880       -0.874880   1.000000   1.000000
    413         -0.874880       -0.874880   1.000000   1.000000
    414         -0.873394       -0.873394   1.000000   1.000000
    415         -0.873049       -0.873049   1.000000   1.000000
    416         -0.873049       -0.873049   1.000000   1.000000
    417         -0.872522       -0.872522   1.000000   1.000000
    418         -0.869738       -0.869738   1.000000   1.000000
    419         -0.869342       -0.869342   1.000000   1.000000
    420         -0.869342       -0.869342   1.000000   1.000000
    421         -0.869049       -0.869049   1.000000   1.000000
    422         -0.834866       -0.834866   1.000000   1.000000
    423         -0.834292       -0.834292   1.000000   1.000000
    424         -0.834292       -0.834292   1.000000   1.000000
    425         -0.834233       -0.834233   1.000000   1.000000
    426         -0.830675       -0.830675   1.000000   1.000000
    427         -0.830675       -0.830675   1.000000   1.000000
    428         -0.829666       -0.829666   1.000000   1.000000
    429         -0.829361       -0.829361   1.000000   1.000000
    430         -0.808828       -0.808828   1.000000   1.000000
    431         -0.808594       -0.808594   1.000000   1.000000
    432         -0.808594       -0.808594   1.000000   1.000000
    433         -0.808097       -0.808097   1.000000   1.000000
    434         -0.804197       -0.804197   1.000000   1.000000
    435         -0.804137       -0.804137   1.000000   1.000000
    436         -0.804137       -0.804137   1.000000   1.000000
    437         -0.800815       -0.800815   1.000000   1.000000
    438         -0.786535       -0.786535   1.000000   1.000000
    439         -0.786530       -0.786530   1.000000   1.000000
    440         -0.786530       -0.786530   1.000000   1.000000
    441         -0.785895       -0.785895   1.000000   1.000000
    442         -0.768364       -0.768364   1.000000   1.000000
    443         -0.768364       -0.768364   1.000000   1.000000
    444         -0.768334       -0.768334   1.000000   1.000000
    445         -0.768111       -0.768111   1.000000   1.000000
    446         -0.768111       -0.768111   1.000000   1.000000
    447         -0.768035       -0.768035   1.000000   1.000000
    448         -0.767507       -0.767507   1.000000   1.000000
    449         -0.767321       -0.767321   1.000000   1.000000
    450         -0.722419       -0.722419   1.000000   1.000000
    451         -0.722419       -0.722419   1.000000   1.000000
    452         -0.722048       -0.722048   1.000000   1.000000
    453         -0.722047       -0.722047   1.000000   1.000000
    454         -0.716639       -0.716639   1.000000   1.000000
    455         -0.716639       -0.716639   1.000000   1.000000
    456         -0.705517       -0.705517   1.000000   1.000000
    457         -0.679412       -0.679412   1.000000   1.000000
    458         -0.679166       -0.679166   1.000000   1.000000
    459         -0.679035       -0.679035   1.000000   1.000000
    460         -0.676668       -0.676668   1.000000   1.000000
    461         -0.676668       -0.676668   1.000000   1.000000
    462         -0.655519       -0.655519   1.000000   1.000000
    463         -0.655304       -0.655304   1.000000   1.000000
    464         -0.655304       -0.655304   1.000000   1.000000