<?xml version="1.0" encoding="ISO-8859-1"?>
<modeling>
 <generator>
  <i name="program" type="string">vasp </i>
  <i name="version" type="string">6.3.2  </i>
  <i name="subversion" type="string">27Jun22 (build Aug 17 2022 15:43:34) complex                          parallel </i>
  <i name="platform" type="string">tv2STDVTST </i>
  <i name="date" type="string">2025 02 06 </i>
  <i name="time" type="string">15:47:17 </i>
 </generator>
 <incar>
  <i type="int" name="ISTART">     0</i>
  <i type="string" name="PREC">Normal</i>
  <i type="int" name="ISPIN">     2</i>
  <i type="int" name="ICHARG">     2</i>
  <i type="int" name="IBRION">     2</i>
  <i name="EDIFF">      0.00020000</i>
  <i name="EDIFFG">     -0.03000000</i>
  <i type="int" name="NSW">   800</i>
  <i type="int" name="ISIF">     2</i>
  <i type="int" name="ISYM">     1</i>
  <i name="ENCUT">    400.00000000</i>
  <i name="POTIM">      0.50000000</i>
  <i type="logical" name="LREAL"> F  </i>
  <i type="int" name="ISMEAR">     1</i>
  <i name="SIGMA">      0.20000000</i>
  <i type="logical" name="LWAVE"> F  </i>
  <i type="logical" name="LCHARG"> F  </i>
  <i type="string" name="GGA">PE</i>
  <i type="int" name="IVDW">    11</i>
 </incar>
 <primitive_cell>
  <structure name="primitive_cell" >
   <crystal>
    <varray name="basis" >
     <v>      10.89000034       0.00000000       0.00000000 </v>
     <v>       0.00000000      10.89000034       0.00000000 </v>
     <v>       0.00000000       0.00000000      27.70499992 </v>
    </varray>
    <i name="volume">   3285.59432860 </i>
    <varray name="rec_basis" >
     <v>       0.09182736       0.00000000       0.00000000 </v>
     <v>       0.00000000       0.09182736       0.00000000 </v>
     <v>       0.00000000       0.00000000       0.03609457 </v>
    </varray>
   </crystal>
   <varray name="positions" >
    <v>       0.00000000       0.00000000       0.00000000 </v>
    <v>       0.00000000       0.33333333       0.00000000 </v>
    <v>       0.00000000       0.66666667       0.00000000 </v>
    <v>       0.33333333       0.00000000       0.00000000 </v>
    <v>       0.33333333       0.33333333       0.00000000 </v>
    <v>       0.33333333       0.66666667       0.00000000 </v>
    <v>       0.66666667       0.00000000       0.00000000 </v>
    <v>       0.66666667       0.33333333       0.00000000 </v>
    <v>       0.66666667       0.66666667       0.00000000 </v>
    <v>       0.16666667       0.16666667       0.00000000 </v>
    <v>       0.16666667       0.50000000       0.00000000 </v>
    <v>       0.16666667       0.83333333       0.00000000 </v>
    <v>       0.50000000       0.16666667       0.00000000 </v>
    <v>       0.50000000       0.50000000       0.00000000 </v>
    <v>       0.50000000       0.83333333       0.00000000 </v>
    <v>       0.83333333       0.16666667       0.00000000 </v>
    <v>       0.83333333       0.50000000       0.00000000 </v>
    <v>       0.83333333       0.83333333       0.00000000 </v>
    <v>       0.00000000       0.16666667       0.06551164 </v>
    <v>       0.00000000       0.50000000       0.06551164 </v>
    <v>       0.00000000       0.83333333       0.06551164 </v>
    <v>       0.33333333       0.16666667       0.06551164 </v>
    <v>       0.33333333       0.50000000       0.06551164 </v>
    <v>       0.33333333       0.83333333       0.06551164 </v>
    <v>       0.66666667       0.16666667       0.06551164 </v>
    <v>       0.66666667       0.50000000       0.06551164 </v>
    <v>       0.66666667       0.83333333       0.06551164 </v>
    <v>       0.16666667       0.00000000       0.06551164 </v>
    <v>       0.16666667       0.33333333       0.06551164 </v>
    <v>       0.16666667       0.66666667       0.06551164 </v>
    <v>       0.50000000       0.00000000       0.06551164 </v>
    <v>       0.50000000       0.33333333       0.06551164 </v>
    <v>       0.50000000       0.66666667       0.06551164 </v>
    <v>       0.83333333       0.00000000       0.06551164 </v>
    <v>       0.83333333       0.33333333       0.06551164 </v>
    <v>       0.83333333       0.66666667       0.06551164 </v>
    <v>       0.00000000       0.00000000       0.13119553 </v>
    <v>       0.00000000       0.33333333       0.13119553 </v>
    <v>       0.00000000       0.66666667       0.13119553 </v>
    <v>       0.33333333       0.00000000       0.13119553 </v>
    <v>       0.33333333       0.33333333       0.13119553 </v>
    <v>       0.33333333       0.66666667       0.13119553 </v>
    <v>       0.66666667       0.00000000       0.13119553 </v>
    <v>       0.66666667       0.33333333       0.13119553 </v>
    <v>       0.66666667       0.66666667       0.13119553 </v>
    <v>       0.16666667       0.16666667       0.13119553 </v>
    <v>       0.16666667       0.50000000       0.13119553 </v>
    <v>       0.16666667       0.83333333       0.13119553 </v>
    <v>       0.50000000       0.16666667       0.13119553 </v>
    <v>       0.50000000       0.50000000       0.13119553 </v>
    <v>       0.50000000       0.83333333       0.13119553 </v>
    <v>       0.83333333       0.16666667       0.13119553 </v>
    <v>       0.83333333       0.50000000       0.13119553 </v>
    <v>       0.83333333       0.83333333       0.13119553 </v>
    <v>       0.00000000       0.16666667       0.19620680 </v>
    <v>       0.00000000       0.50000000       0.19620680 </v>
    <v>       0.00000000       0.83333333       0.19620680 </v>
    <v>       0.33333333       0.16666667       0.19620680 </v>
    <v>       0.33333333       0.50000000       0.19620680 </v>
    <v>       0.33333333       0.83333333       0.19620680 </v>
    <v>       0.66666667       0.16666667       0.19620680 </v>
    <v>       0.66666667       0.50000000       0.19620680 </v>
    <v>       0.66666667       0.83333333       0.19620680 </v>
    <v>       0.16666667       0.00000000       0.19620680 </v>
    <v>       0.16666667       0.33333333       0.19620680 </v>
    <v>       0.16666667       0.66666667       0.19620680 </v>
    <v>       0.50000000       0.00000000       0.19620680 </v>
    <v>       0.50000000       0.33333333       0.19620680 </v>
    <v>       0.50000000       0.66666667       0.19620680 </v>
    <v>       0.83333333       0.00000000       0.19620680 </v>
    <v>       0.83333333       0.33333333       0.19620680 </v>
    <v>       0.83333333       0.66666667       0.19620680 </v>
    <v>       0.00000000       0.00000000       0.25873860 </v>
    <v>       0.00000000       0.33333333       0.25873860 </v>
    <v>       0.00000000       0.66666667       0.25873860 </v>
    <v>       0.33333333       0.00000000       0.25873860 </v>
    <v>       0.33333333       0.33333333       0.25873860 </v>
    <v>       0.33333333       0.66666667       0.25873860 </v>
    <v>       0.66666667       0.00000000       0.25873860 </v>
    <v>       0.66666667       0.33333333       0.25873860 </v>
    <v>       0.66666667       0.66666667       0.25873860 </v>
    <v>       0.16666667       0.16666667       0.25873860 </v>
    <v>       0.16666667       0.50000000       0.25873860 </v>
    <v>       0.16666667       0.83333333       0.25873860 </v>
    <v>       0.50000000       0.16666667       0.25873860 </v>
    <v>       0.50000000       0.50000000       0.25873860 </v>
    <v>       0.50000000       0.83333333       0.25873860 </v>
    <v>       0.83333333       0.16666667       0.25873860 </v>
    <v>       0.83333333       0.50000000       0.25873860 </v>
    <v>       0.83333333       0.83333333       0.25873860 </v>
    <v>       0.00000000       0.16666667       0.32119954 </v>
    <v>       0.00000000       0.50000000       0.32119954 </v>
    <v>       0.00000000       0.83333333       0.32119954 </v>
    <v>       0.33333333       0.16666667       0.32119954 </v>
    <v>       0.33333333       0.50000000       0.32119954 </v>
    <v>       0.33333333       0.83333333       0.32119954 </v>
    <v>       0.66666667       0.16666667       0.32119954 </v>
    <v>       0.66666667       0.50000000       0.32119954 </v>
    <v>       0.66666667       0.83333333       0.32119954 </v>
    <v>       0.16666667       0.00000000       0.32119954 </v>
    <v>       0.16666667       0.33333333       0.32119954 </v>
    <v>       0.16666667       0.66666667       0.32119954 </v>
    <v>       0.50000000       0.00000000       0.32119954 </v>
    <v>       0.50000000       0.33333333       0.32119954 </v>
    <v>       0.50000000       0.66666667       0.32119954 </v>
    <v>       0.83333333       0.00000000       0.32119954 </v>
    <v>       0.83333333       0.33333333       0.32119954 </v>
    <v>       0.83333333       0.66666667       0.32119954 </v>
    <v>       0.00000000       0.00000000       0.38476372 </v>
    <v>       0.00000000       0.33333333       0.38476372 </v>
    <v>       0.00000000       0.66666667       0.38476372 </v>
    <v>       0.33333333       0.00000000       0.38476372 </v>
    <v>       0.33333333       0.33333333       0.38476372 </v>
    <v>       0.33333333       0.66666667       0.38476372 </v>
    <v>       0.66666667       0.00000000       0.38476372 </v>
    <v>       0.66666667       0.33333333       0.38476372 </v>
    <v>       0.66666667       0.66666667       0.38476372 </v>
    <v>       0.16666667       0.16666667       0.38476372 </v>
    <v>       0.16666667       0.50000000       0.38476372 </v>
    <v>       0.16666667       0.83333333       0.38476372 </v>
    <v>       0.50000000       0.16666667       0.38476372 </v>
    <v>       0.50000000       0.50000000       0.38476372 </v>
    <v>       0.50000000       0.83333333       0.38476372 </v>
    <v>       0.83333333       0.16666667       0.38476372 </v>
    <v>       0.83333333       0.50000000       0.38476372 </v>
    <v>       0.83333333       0.83333333       0.38476372 </v>
    <v>       0.00000000       0.16666667       0.44736473 </v>
    <v>       0.00000000       0.50000000       0.44736473 </v>
    <v>       0.00000000       0.83333333       0.44736473 </v>
    <v>       0.33333333       0.16666667       0.44736473 </v>
    <v>       0.33333333       0.50000000       0.44736473 </v>
    <v>       0.33333333       0.83333333       0.44736473 </v>
    <v>       0.66666667       0.16666667       0.44736473 </v>
    <v>       0.66666667       0.50000000       0.44736473 </v>
    <v>       0.66666667       0.83333333       0.44736473 </v>
    <v>       0.16666667       0.00000000       0.44736473 </v>
    <v>       0.16666667       0.33333333       0.44736473 </v>
    <v>       0.16666667       0.66666667       0.44736473 </v>
    <v>       0.50000000       0.00000000       0.44736473 </v>
    <v>       0.50000000       0.33333333       0.44736473 </v>
    <v>       0.50000000       0.66666667       0.44736473 </v>
    <v>       0.83333333       0.00000000       0.44736473 </v>
    <v>       0.83333333       0.33333333       0.44736473 </v>
    <v>       0.83333333       0.66666667       0.44736473 </v>
    <v>       0.33333333       0.33333333       0.50150658 </v>
    <v>       0.33333333       0.33333333       0.52843313 </v>
   </varray>
  </structure>
  <varray name="primitive_index" >
   <v type="int" >        1 </v>
   <v type="int" >        2 </v>
   <v type="int" >        3 </v>
   <v type="int" >        4 </v>
   <v type="int" >        5 </v>
   <v type="int" >        6 </v>
   <v type="int" >        7 </v>
   <v type="int" >        8 </v>
   <v type="int" >        9 </v>
   <v type="int" >       10 </v>
   <v type="int" >       11 </v>
   <v type="int" >       12 </v>
   <v type="int" >       13 </v>
   <v type="int" >       14 </v>
   <v type="int" >       15 </v>
   <v type="int" >       16 </v>
   <v type="int" >       17 </v>
   <v type="int" >       18 </v>
   <v type="int" >       19 </v>
   <v type="int" >       20 </v>
   <v type="int" >       21 </v>
   <v type="int" >       22 </v>
   <v type="int" >       23 </v>
   <v type="int" >       24 </v>
   <v type="int" >       25 </v>
   <v type="int" >       26 </v>
   <v type="int" >       27 </v>
   <v type="int" >       28 </v>
   <v type="int" >       29 </v>
   <v type="int" >       30 </v>
   <v type="int" >       31 </v>
   <v type="int" >       32 </v>
   <v type="int" >       33 </v>
   <v type="int" >       34 </v>
   <v type="int" >       35 </v>
   <v type="int" >       36 </v>
   <v type="int" >       37 </v>
   <v type="int" >       38 </v>
   <v type="int" >       39 </v>
   <v type="int" >       40 </v>
   <v type="int" >       41 </v>
   <v type="int" >       42 </v>
   <v type="int" >       43 </v>
   <v type="int" >       44 </v>
   <v type="int" >       45 </v>
   <v type="int" >       46 </v>
   <v type="int" >       47 </v>
   <v type="int" >       48 </v>
   <v type="int" >       49 </v>
   <v type="int" >       50 </v>
   <v type="int" >       51 </v>
   <v type="int" >       52 </v>
   <v type="int" >       53 </v>
   <v type="int" >       54 </v>
   <v type="int" >       55 </v>
   <v type="int" >       56 </v>
   <v type="int" >       57 </v>
   <v type="int" >       58 </v>
   <v type="int" >       59 </v>
   <v type="int" >       60 </v>
   <v type="int" >       61 </v>
   <v type="int" >       62 </v>
   <v type="int" >       63 </v>
   <v type="int" >       64 </v>
   <v type="int" >       65 </v>
   <v type="int" >       66 </v>
   <v type="int" >       67 </v>
   <v type="int" >       68 </v>
   <v type="int" >       69 </v>
   <v type="int" >       70 </v>
   <v type="int" >       71 </v>
   <v type="int" >       72 </v>
   <v type="int" >       73 </v>
   <v type="int" >       74 </v>
   <v type="int" >       75 </v>
   <v type="int" >       76 </v>
   <v type="int" >       77 </v>
   <v type="int" >       78 </v>
   <v type="int" >       79 </v>
   <v type="int" >       80 </v>
   <v type="int" >       81 </v>
   <v type="int" >       82 </v>
   <v type="int" >       83 </v>
   <v type="int" >       84 </v>
   <v type="int" >       85 </v>
   <v type="int" >       86 </v>
   <v type="int" >       87 </v>
   <v type="int" >       88 </v>
   <v type="int" >       89 </v>
   <v type="int" >       90 </v>
   <v type="int" >       91 </v>
   <v type="int" >       92 </v>
   <v type="int" >       93 </v>
   <v type="int" >       94 </v>
   <v type="int" >       95 </v>
   <v type="int" >       96 </v>
   <v type="int" >       97 </v>
   <v type="int" >       98 </v>
   <v type="int" >       99 </v>
   <v type="int" >      100 </v>
   <v type="int" >      101 </v>
   <v type="int" >      102 </v>
   <v type="int" >      103 </v>
   <v type="int" >      104 </v>
   <v type="int" >      105 </v>
   <v type="int" >      106 </v>
   <v type="int" >      107 </v>
   <v type="int" >      108 </v>
   <v type="int" >      109 </v>
   <v type="int" >      110 </v>
   <v type="int" >      111 </v>
   <v type="int" >      112 </v>
   <v type="int" >      113 </v>
   <v type="int" >      114 </v>
   <v type="int" >      115 </v>
   <v type="int" >      116 </v>
   <v type="int" >      117 </v>
   <v type="int" >      118 </v>
   <v type="int" >      119 </v>
   <v type="int" >      120 </v>
   <v type="int" >      121 </v>
   <v type="int" >      122 </v>
   <v type="int" >      123 </v>
   <v type="int" >      124 </v>
   <v type="int" >      125 </v>
   <v type="int" >      126 </v>
   <v type="int" >      127 </v>
   <v type="int" >      128 </v>
   <v type="int" >      129 </v>
   <v type="int" >      130 </v>
   <v type="int" >      131 </v>
   <v type="int" >      132 </v>
   <v type="int" >      133 </v>
   <v type="int" >      134 </v>
   <v type="int" >      135 </v>
   <v type="int" >      136 </v>
   <v type="int" >      137 </v>
   <v type="int" >      138 </v>
   <v type="int" >      139 </v>
   <v type="int" >      140 </v>
   <v type="int" >      141 </v>
   <v type="int" >      142 </v>
   <v type="int" >      143 </v>
   <v type="int" >      144 </v>
   <v type="int" >      145 </v>
   <v type="int" >      146 </v>
  </varray>
 </primitive_cell>
 <kpoints>
  <generation param="Monkhorst-Pack">
   <v type="int" name="divisions">       3        3        1 </v>
   <v name="usershift">      0.00000000       0.00000000       0.00000000 </v>
   <v name="genvec1">      0.33333333       0.00000000       0.00000000 </v>
   <v name="genvec2">      0.00000000       0.33333333       0.00000000 </v>
   <v name="genvec3">      0.00000000       0.00000000       1.00000000 </v>
   <v name="shift">      0.00000000       0.00000000       0.00000000 </v>
  </generation>
  <varray name="kpointlist" >
   <v>       0.00000000       0.00000000       0.00000000 </v>
   <v>       0.33333333       0.00000000       0.00000000 </v>
   <v>       0.33333333       0.33333333       0.00000000 </v>
  </varray>
  <varray name="weights" >
   <v>       0.11111111 </v>
   <v>       0.44444444 </v>
   <v>       0.44444444 </v>
  </varray>
 </kpoints>
 <parameters>
  <separator name="general" >
   <i type="string" name="SYSTEM">unknown system</i>
   <i type="logical" name="LCOMPAT"> F  </i>
  </separator>
  <separator name="electronic" >
   <i type="string" name="PREC">normal</i>
   <i name="ENMAX">    400.00000000</i>
   <i name="ENAUG">    586.98000000</i>
   <i name="EDIFF">      0.00020000</i>
   <i type="int" name="IALGO">    38</i>
   <i type="int" name="IWAVPR">    11</i>
   <i type="int" name="NBANDS">  1024</i>
   <i type="int" name="NBANDSLOW">    -1</i>
   <i type="int" name="NBANDSHIGH">    -1</i>
   <i name="NELECT">   1586.00000000</i>
   <i type="int" name="TURBO">     0</i>
   <i type="int" name="IRESTART">     0</i>
   <i type="int" name="NREBOOT">     0</i>
   <i type="int" name="NMIN">     0</i>
   <i name="EREF">      0.00000000</i>
   <separator name="electronic smearing" >
    <i type="int" name="ISMEAR">     1</i>
    <i name="SIGMA">      0.20000000</i>
    <i name="KSPACING">      0.50000000</i>
    <i type="logical" name="KGAMMA"> T  </i>
    <i type="logical" name="KBLOWUP"> T  </i>
   </separator>
   <separator name="electronic projectors" >
    <i type="logical" name="LREAL"> F  </i>
    <v name="ROPT">      0.00000000      0.00000000</v>
    <i type="int" name="LMAXPAW">  -100</i>
    <i type="int" name="LMAXMIX">     2</i>
    <i type="logical" name="NLSPLINE"> F  </i>
   </separator>
   <separator name="electronic startup" >
    <i type="int" name="ISTART">     0</i>
    <i type="int" name="ICHARG">     2</i>
    <i type="int" name="INIWAV">     1</i>
   </separator>
   <separator name="electronic spin" >
    <i type="int" name="ISPIN">     2</i>
    <i type="logical" name="LNONCOLLINEAR"> F  </i>
    <v name="MAGMOM">      1.00000000      1.00000000      1.00000000      1.00000000      1.00000000      1.00000000      1.00000000      1.00000000      1.00000000      1.00000000      1.00000000      1.00000000      1.00000000      1.00000000      1.00000000      1.00000000      1.00000000      1.00000000      1.00000000      1.00000000
      1.00000000      1.00000000      1.00000000      1.00000000      1.00000000      1.00000000      1.00000000      1.00000000      1.00000000      1.00000000      1.00000000      1.00000000      1.00000000      1.00000000      1.00000000      1.00000000      1.00000000      1.00000000      1.00000000      1.00000000
      1.00000000      1.00000000      1.00000000      1.00000000      1.00000000      1.00000000      1.00000000      1.00000000      1.00000000      1.00000000      1.00000000      1.00000000      1.00000000      1.00000000      1.00000000      1.00000000      1.00000000      1.00000000      1.00000000      1.00000000
      1.00000000      1.00000000      1.00000000      1.00000000      1.00000000      1.00000000      1.00000000      1.00000000      1.00000000      1.00000000      1.00000000      1.00000000      1.00000000      1.00000000      1.00000000      1.00000000      1.00000000      1.00000000      1.00000000      1.00000000
      1.00000000      1.00000000      1.00000000      1.00000000      1.00000000      1.00000000      1.00000000      1.00000000      1.00000000      1.00000000      1.00000000      1.00000000      1.00000000      1.00000000      1.00000000      1.00000000      1.00000000      1.00000000      1.00000000      1.00000000
      1.00000000      1.00000000      1.00000000      1.00000000      1.00000000      1.00000000      1.00000000      1.00000000      1.00000000      1.00000000      1.00000000      1.00000000      1.00000000      1.00000000      1.00000000      1.00000000      1.00000000      1.00000000      1.00000000      1.00000000
      1.00000000      1.00000000      1.00000000      1.00000000      1.00000000      1.00000000      1.00000000      1.00000000      1.00000000      1.00000000      1.00000000      1.00000000      1.00000000      1.00000000      1.00000000      1.00000000      1.00000000      1.00000000      1.00000000      1.00000000
      1.00000000      1.00000000      1.00000000      1.00000000      1.00000000      1.00000000</v>
    <i name="NUPDOWN">     -1.00000000</i>
    <i type="logical" name="LSORBIT"> F  </i>
    <v name="SAXIS">      0.00000000      0.00000000      1.00000000</v>
    <i type="logical" name="LSPIRAL"> F  </i>
    <v name="QSPIRAL">      0.00000000      0.00000000      0.00000000</v>
    <i type="logical" name="LZEROZ"> F  </i>
   </separator>
   <separator name="electronic exchange-correlation" >
    <i type="logical" name="LASPH"> F  </i>
    <i type="logical" name="LMETAGGA"> F  </i>
   </separator>
   <separator name="electronic convergence" >
    <i type="int" name="NELM">    60</i>
    <i type="int" name="NELMDL">    -5</i>
    <i type="int" name="NELMIN">     2</i>
    <i name="ENINI">    400.00000000</i>
    <separator name="electronic convergence detail" >
     <i type="logical" name="LDIAG"> T  </i>
     <i type="logical" name="LSUBROT"> F  </i>
     <i name="WEIMIN">      0.00100000</i>
     <i name="EBREAK">      0.00000005</i>
     <i name="DEPER">      0.30000000</i>
     <i type="int" name="NRMM">     4</i>
     <i name="TIME">      0.40000000</i>
    </separator>
   </separator>
   <separator name="electronic mixer" >
    <i name="AMIX">      0.40000000</i>
    <i name="BMIX">      1.00000000</i>
    <i name="AMIN">      0.10000000</i>
    <i name="AMIX_MAG">      1.60000000</i>
    <i name="BMIX_MAG">      1.00000000</i>
    <separator name="electronic mixer details" >
     <i type="int" name="IMIX">     4</i>
     <i type="logical" name="MIXFIRST"> F  </i>
     <i type="int" name="MAXMIX">   -45</i>
     <i name="WC">    100.00000000</i>
     <i type="int" name="INIMIX">     1</i>
     <i type="int" name="MIXPRE">     1</i>
     <i type="int" name="MREMOVE">     5</i>
    </separator>
   </separator>
   <separator name="electronic dipolcorrection" >
    <i type="logical" name="LDIPOL"> F  </i>
    <i type="logical" name="LMONO"> F  </i>
    <i type="int" name="IDIPOL">     0</i>
    <i name="EPSILON">      1.00000000</i>
    <v name="DIPOL">   -100.00000000   -100.00000000   -100.00000000</v>
    <i name="EFIELD">      0.00000000</i>
   </separator>
  </separator>
  <separator name="grids" >
   <i type="int" name="NGX">    54</i>
   <i type="int" name="NGY">    54</i>
   <i type="int" name="NGZ">   140</i>
   <i type="int" name="NGXF">   108</i>
   <i type="int" name="NGYF">   108</i>
   <i type="int" name="NGZF">   280</i>
   <i type="logical" name="ADDGRID"> F  </i>
  </separator>
  <separator name="ionic" >
   <i type="int" name="NSW">   800</i>
   <i type="int" name="IBRION">     2</i>
   <i type="int" name="MDALGO">     0</i>
   <i type="int" name="ISIF">     2</i>
   <i name="PSTRESS">      0.00000000</i>
   <i name="EDIFFG">     -0.03000000</i>
   <i type="int" name="NFREE">     1</i>
   <i name="POTIM">      0.50000000</i>
   <i name="SMASS">     -3.00000000</i>
   <i name="SCALEE">      1.00000000</i>
  </separator>
  <separator name="ionic md" >
   <i name="TEBEG">      0.00010000</i>
   <i name="TEEND">      0.00010000</i>
   <i type="int" name="NBLOCK">     1</i>
   <i type="int" name="KBLOCK">   800</i>
   <i type="int" name="NPACO">   256</i>
   <i name="APACO">     10.00000000</i>
  </separator>
  <separator name="symmetry" >
   <i type="int" name="ISYM">     1</i>
   <i name="SYMPREC">      0.00001000</i>
  </separator>
  <separator name="dos" >
   <i type="int" name="LORBIT">     0</i>
   <v name="RWIGS">     -1.00000000     -1.00000000</v>
   <i type="int" name="NEDOS">   301</i>
   <i name="EMIN">     10.00000000</i>
   <i name="EMAX">    -10.00000000</i>
   <i name="EFERMI">      0.00000000</i>
  </separator>
  <separator name="writing" >
   <i type="int" name="NWRITE">     2</i>
   <i type="logical" name="LWAVE"> F  </i>
   <i type="logical" name="LDOWNSAMPLE"> F  </i>
   <i type="logical" name="LCHARG"> F  </i>
   <i type="logical" name="LPARD"> F  </i>
   <i type="logical" name="LVTOT"> F  </i>
   <i type="logical" name="LVHAR"> F  </i>
   <i type="logical" name="LELF"> F  </i>
   <i type="logical" name="LOPTICS"> F  </i>
   <v name="STM">      0.00000000      0.00000000      0.00000000      0.00000000      0.00000000      0.00000000      0.00000000</v>
  </separator>
  <separator name="performance" >
   <i type="int" name="NPAR">     4</i>
   <i type="int" name="NSIM">     4</i>
   <i type="int" name="NBLK">    -1</i>
   <i type="logical" name="LPLANE"> T  </i>
   <i type="logical" name="LSCALAPACK"> T  </i>
   <i type="logical" name="LSCAAWARE"> F  </i>
   <i type="logical" name="LSCALU"> F  </i>
   <i type="logical" name="LASYNC"> F  </i>
   <i type="logical" name="LORBITALREAL"> F  </i>
  </separator>
  <separator name="miscellaneous" >
   <i type="int" name="IDIOT">     3</i>
   <i type="int" name="PHON_NSTRUCT">    -1</i>
   <i type="logical" name="LMUSIC"> F  </i>
   <v name="POMASS">     63.54600000      1.00000000</v>
   <v name="DARWINR">      0.00000000      0.00000000</v>
   <v name="DARWINV">      1.00000000      1.00000000</v>
   <i type="logical" name="LCORR"> T  </i>
  </separator>
  <i type="logical" name="GGA_COMPAT"> T  </i>
  <i type="logical" name="LBERRY"> F  </i>
  <i type="int" name="ICORELEVEL">     0</i>
  <i type="logical" name="LDAU"> F  </i>
  <i type="int" name="I_CONSTRAINED_M">     0</i>
  <separator name="electronic exchange-correlation" >
   <i type="string" name="GGA">PE</i>
   <i type="int" name="VOSKOWN">     0</i>
   <i type="logical" name="LHFCALC"> F  </i>
   <i type="string" name="PRECFOCK"></i>
   <i type="logical" name="LSYMGRAD"> F  </i>
   <i type="logical" name="LHFONE"> F  </i>
   <i type="logical" name="LRHFCALC"> F  </i>
   <i type="logical" name="LTHOMAS"> F  </i>
   <i type="logical" name="LMODELHF"> F  </i>
   <i type="logical" name="LFOCKACE"> F  </i>
   <i name="ENCUT4O">     -1.00000000</i>
   <i type="int" name="EXXOEP">     0</i>
   <i type="int" name="FOURORBIT">     0</i>
   <i name="AEXX">      0.00000000</i>
   <i name="HFALPHA">      0.00000000</i>
   <i name="MCALPHA">      0.00000000</i>
   <i name="ALDAX">      1.00000000</i>
   <i name="AGGAX">      1.00000000</i>
   <i name="ALDAC">      1.00000000</i>
   <i name="AGGAC">      1.00000000</i>
   <i type="int" name="NKREDX">     1</i>
   <i type="int" name="NKREDY">     1</i>
   <i type="int" name="NKREDZ">     1</i>
   <i type="logical" name="SHIFTRED"> F  </i>
   <i type="logical" name="ODDONLY"> F  </i>
   <i type="logical" name="EVENONLY"> F  </i>
   <i type="int" name="LMAXFOCK">     0</i>
   <i type="int" name="NMAXFOCKAE">     0</i>
   <i type="logical" name="LFOCKAEDFT"> F  </i>
   <i name="HFSCREEN">      0.00000000</i>
   <i name="HFSCREENC">      0.00000000</i>
   <i type="int" name="NBANDSGWLOW">     0</i>
  </separator>
  <separator name="vdW DFT" >
   <i type="logical" name="LUSE_VDW"> F  </i>
   <i name="Zab_VDW">     -0.84910000</i>
   <i name="PARAM1">      0.12340000</i>
   <i name="PARAM2">      1.00000000</i>
   <i name="PARAM3">      0.00000000</i>
  </separator>
  <separator name="model GW" >
   <i type="int" name="MODEL_GW">     0</i>
   <i name="MODEL_EPS0">     13.50244245</i>
   <i name="MODEL_ALPHA">      1.00000000</i>
  </separator>
  <separator name="linear response parameters" >
   <i type="logical" name="LEPSILON"> F  </i>
   <i type="logical" name="LRPA"> F  </i>
   <i type="logical" name="LNABLA"> F  </i>
   <i type="logical" name="LVEL"> F  </i>
   <i name="CSHIFT">      0.10000000</i>
   <i name="OMEGAMAX">     -1.00000000</i>
   <i name="DEG_THRESHOLD">      0.00200000</i>
   <i name="RTIME">     -0.10000000</i>
   <i name="WPLASMAI">      0.00000000</i>
   <v name="DFIELD">      0.00000000      0.00000000      0.00000000</v>
   <v name="WPLASMA">      0.00000000      0.00000000      0.00000000      0.00000000      0.00000000      0.00000000      0.00000000      0.00000000      0.00000000</v>
  </separator>
  <separator name="orbital magnetization" >
   <i type="logical" name="NUCIND"> F  </i>
   <v name="MAGPOS">      0.00000000      0.00000000      0.00000000</v>
   <i type="logical" name="LNICSALL"> T  </i>
   <i type="logical" name="ORBITALMAG"> F  </i>
   <i type="logical" name="LMAGBLOCH"> F  </i>
   <i type="logical" name="LCHIMAG"> F  </i>
   <i type="logical" name="LGAUGE"> T  </i>
   <i type="int" name="MAGATOM">     0</i>
   <v name="MAGDIPOL">      0.00000000      0.00000000      0.00000000</v>
   <v name="AVECCONST">      0.00000000      0.00000000      0.00000000</v>
  </separator>
  <separator name="response functions" >
   <i type="logical" name="LFINITE_TEMPERATURE"> F  </i>
   <i type="logical" name="LADDER"> F  </i>
   <i type="logical" name="LRPAFORCE"> F  </i>
   <i type="logical" name="LFXC"> F  </i>
   <i type="logical" name="LHARTREE"> T  </i>
   <i type="int" name="IBSE">     0</i>
   <v type="int" name="KPOINT">    -1     0     0     0</v>
   <i type="logical" name="LTCTC"> F  </i>
   <i type="logical" name="LTCTE"> F  </i>
   <i type="logical" name="LTETE"> F  </i>
   <i type="logical" name="LTRIPLET"> F  </i>
   <i type="logical" name="LFXCEPS"> F  </i>
   <i type="logical" name="LFXHEG"> F  </i>
   <i type="int" name="NATURALO">     2</i>
   <i type="logical" name="LHOLEGF"> F  </i>
   <i type="logical" name="L2ORDER"> F  </i>
   <i type="logical" name="LDMP1"> F  </i>
   <i type="logical" name="LMP2LT"> F  </i>
   <i type="logical" name="LSMP2LT"> F  </i>
   <i type="logical" name="LGWLF"> F  </i>
   <i name="ENCUTGW">     -2.00000000</i>
   <i name="ENCUTGWSOFT">     -2.00000000</i>
   <i name="ENCUTLF">     -1.00000000</i>
   <i type="logical" name="LESF_SPLINES"> F  </i>
   <i type="int" name="LMAXMP2">    -1</i>
   <i name="SCISSOR">      0.00000000</i>
   <i type="int" name="NOMEGA">     0</i>
   <i type="int" name="NOMEGAR">     0</i>
   <i type="int" name="NBANDSGW">    -1</i>
   <i type="int" name="NBANDSO">    -1</i>
   <i type="int" name="NBANDSV">    -1</i>
   <i type="int" name="NELMGW">     1</i>
   <i type="int" name="NELMHF">     1</i>
   <i type="int" name="DIM">     3</i>
   <i type="int" name="IESPILON">     4</i>
   <i type="int" name="ANTIRES">     0</i>
   <i name="OMEGAMAX">    -30.00000000</i>
   <i name="OMEGAMIN">    -30.00000000</i>
   <i name="OMEGATL">   -200.00000000</i>
   <i type="int" name="OMEGAGRID">     0</i>
   <i name="CSHIFT">     -0.10000000</i>
   <i type="logical" name="LSELFENERGY"> F  </i>
   <i type="logical" name="LSPECTRAL"> F  </i>
   <i type="logical" name="LSPECTRALGW"> F  </i>
   <i type="logical" name="LSINGLES"> F  </i>
   <i type="logical" name="LFERMIGW"> F  </i>
   <i type="logical" name="ODDONLYGW"> F  </i>
   <i type="logical" name="EVENONLYGW"> F  </i>
   <i type="int" name="NKREDLFX">     1</i>
   <i type="int" name="NKREDLFY">     1</i>
   <i type="int" name="NKREDLFZ">     1</i>
   <i type="int" name="MAXMEM">  2800</i>
   <i type="int" name="TELESCOPE">     0</i>
   <i type="int" name="NTAUPAR">    -1</i>
   <i type="int" name="NOMEGAPAR">    -1</i>
   <i name="DAMP_NEWTON">      0.80000001</i>
   <i name="LAMBDA">      1.00000000</i>
  </separator>
  <separator name="External order field" >
   <i name="OFIELD_KAPPA">      0.00000000</i>
   <v name="OFIELD_K">      0.00000000      0.00000000      0.00000000</v>
   <i name="OFIELD_Q6_NEAR">      0.00000000</i>
   <i name="OFIELD_Q6_FAR">      0.00000000</i>
   <i name="OFIELD_A">      0.00000000</i>
  </separator>
  <separator name="optional k-points parameters" >
   <i type="int" name="KPOINTS_OPT_MODE">     1</i>
   <i type="logical" name="LKPOINTS_OPT"> F  </i>
  </separator>
 </parameters>
 <atominfo>
  <atoms>     146 </atoms>
  <types>       2 </types>
  <array name="atoms" >
   <dimension dim="1">ion</dimension>
   <field type="string">element</field>
   <field type="int">atomtype</field>
   <set>
    <rc><c>Cu</c><c>   1</c></rc>
    <rc><c>Cu</c><c>   1</c></rc>
    <rc><c>Cu</c><c>   1</c></rc>
    <rc><c>Cu</c><c>   1</c></rc>
    <rc><c>Cu</c><c>   1</c></rc>
    <rc><c>Cu</c><c>   1</c></rc>
    <rc><c>Cu</c><c>   1</c></rc>
    <rc><c>Cu</c><c>   1</c></rc>
    <rc><c>Cu</c><c>   1</c></rc>
    <rc><c>Cu</c><c>   1</c></rc>
    <rc><c>Cu</c><c>   1</c></rc>
    <rc><c>Cu</c><c>   1</c></rc>
    <rc><c>Cu</c><c>   1</c></rc>
    <rc><c>Cu</c><c>   1</c></rc>
    <rc><c>Cu</c><c>   1</c></rc>
    <rc><c>Cu</c><c>   1</c></rc>
    <rc><c>Cu</c><c>   1</c></rc>
    <rc><c>Cu</c><c>   1</c></rc>
    <rc><c>Cu</c><c>   1</c></rc>
    <rc><c>Cu</c><c>   1</c></rc>
    <rc><c>Cu</c><c>   1</c></rc>
    <rc><c>Cu</c><c>   1</c></rc>
    <rc><c>Cu</c><c>   1</c></rc>
    <rc><c>Cu</c><c>   1</c></rc>
    <rc><c>Cu</c><c>   1</c></rc>
    <rc><c>Cu</c><c>   1</c></rc>
    <rc><c>Cu</c><c>   1</c></rc>
    <rc><c>Cu</c><c>   1</c></rc>
    <rc><c>Cu</c><c>   1</c></rc>
    <rc><c>Cu</c><c>   1</c></rc>
    <rc><c>Cu</c><c>   1</c></rc>
    <rc><c>Cu</c><c>   1</c></rc>
    <rc><c>Cu</c><c>   1</c></rc>
    <rc><c>Cu</c><c>   1</c></rc>
    <rc><c>Cu</c><c>   1</c></rc>
    <rc><c>Cu</c><c>   1</c></rc>
    <rc><c>Cu</c><c>   1</c></rc>
    <rc><c>Cu</c><c>   1</c></rc>
    <rc><c>Cu</c><c>   1</c></rc>
    <rc><c>Cu</c><c>   1</c></rc>
    <rc><c>Cu</c><c>   1</c></rc>
    <rc><c>Cu</c><c>   1</c></rc>
    <rc><c>Cu</c><c>   1</c></rc>
    <rc><c>Cu</c><c>   1</c></rc>
    <rc><c>Cu</c><c>   1</c></rc>
    <rc><c>Cu</c><c>   1</c></rc>
    <rc><c>Cu</c><c>   1</c></rc>
    <rc><c>Cu</c><c>   1</c></rc>
    <rc><c>Cu</c><c>   1</c></rc>
    <rc><c>Cu</c><c>   1</c></rc>
    <rc><c>Cu</c><c>   1</c></rc>
    <rc><c>Cu</c><c>   1</c></rc>
    <rc><c>Cu</c><c>   1</c></rc>
    <rc><c>Cu</c><c>   1</c></rc>
    <rc><c>Cu</c><c>   1</c></rc>
    <rc><c>Cu</c><c>   1</c></rc>
    <rc><c>Cu</c><c>   1</c></rc>
    <rc><c>Cu</c><c>   1</c></rc>
    <rc><c>Cu</c><c>   1</c></rc>
    <rc><c>Cu</c><c>   1</c></rc>
    <rc><c>Cu</c><c>   1</c></rc>
    <rc><c>Cu</c><c>   1</c></rc>
    <rc><c>Cu</c><c>   1</c></rc>
    <rc><c>Cu</c><c>   1</c></rc>
    <rc><c>Cu</c><c>   1</c></rc>
    <rc><c>Cu</c><c>   1</c></rc>
    <rc><c>Cu</c><c>   1</c></rc>
    <rc><c>Cu</c><c>   1</c></rc>
    <rc><c>Cu</c><c>   1</c></rc>
    <rc><c>Cu</c><c>   1</c></rc>
    <rc><c>Cu</c><c>   1</c></rc>
    <rc><c>Cu</c><c>   1</c></rc>
    <rc><c>Cu</c><c>   1</c></rc>
    <rc><c>Cu</c><c>   1</c></rc>
    <rc><c>Cu</c><c>   1</c></rc>
    <rc><c>Cu</c><c>   1</c></rc>
    <rc><c>Cu</c><c>   1</c></rc>
    <rc><c>Cu</c><c>   1</c></rc>
    <rc><c>Cu</c><c>   1</c></rc>
    <rc><c>Cu</c><c>   1</c></rc>
    <rc><c>Cu</c><c>   1</c></rc>
    <rc><c>Cu</c><c>   1</c></rc>
    <rc><c>Cu</c><c>   1</c></rc>
    <rc><c>Cu</c><c>   1</c></rc>
    <rc><c>Cu</c><c>   1</c></rc>
    <rc><c>Cu</c><c>   1</c></rc>
    <rc><c>Cu</c><c>   1</c></rc>
    <rc><c>Cu</c><c>   1</c></rc>
    <rc><c>Cu</c><c>   1</c></rc>
    <rc><c>Cu</c><c>   1</c></rc>
    <rc><c>Cu</c><c>   1</c></rc>
    <rc><c>Cu</c><c>   1</c></rc>
    <rc><c>Cu</c><c>   1</c></rc>
    <rc><c>Cu</c><c>   1</c></rc>
    <rc><c>Cu</c><c>   1</c></rc>
    <rc><c>Cu</c><c>   1</c></rc>
    <rc><c>Cu</c><c>   1</c></rc>
    <rc><c>Cu</c><c>   1</c></rc>
    <rc><c>Cu</c><c>   1</c></rc>
    <rc><c>Cu</c><c>   1</c></rc>
    <rc><c>Cu</c><c>   1</c></rc>
    <rc><c>Cu</c><c>   1</c></rc>
    <rc><c>Cu</c><c>   1</c></rc>
    <rc><c>Cu</c><c>   1</c></rc>
    <rc><c>Cu</c><c>   1</c></rc>
    <rc><c>Cu</c><c>   1</c></rc>
    <rc><c>Cu</c><c>   1</c></rc>
    <rc><c>Cu</c><c>   1</c></rc>
    <rc><c>Cu</c><c>   1</c></rc>
    <rc><c>Cu</c><c>   1</c></rc>
    <rc><c>Cu</c><c>   1</c></rc>
    <rc><c>Cu</c><c>   1</c></rc>
    <rc><c>Cu</c><c>   1</c></rc>
    <rc><c>Cu</c><c>   1</c></rc>
    <rc><c>Cu</c><c>   1</c></rc>
    <rc><c>Cu</c><c>   1</c></rc>
    <rc><c>Cu</c><c>   1</c></rc>
    <rc><c>Cu</c><c>   1</c></rc>
    <rc><c>Cu</c><c>   1</c></rc>
    <rc><c>Cu</c><c>   1</c></rc>
    <rc><c>Cu</c><c>   1</c></rc>
    <rc><c>Cu</c><c>   1</c></rc>
    <rc><c>Cu</c><c>   1</c></rc>
    <rc><c>Cu</c><c>   1</c></rc>
    <rc><c>Cu</c><c>   1</c></rc>
    <rc><c>Cu</c><c>   1</c></rc>
    <rc><c>Cu</c><c>   1</c></rc>
    <rc><c>Cu</c><c>   1</c></rc>
    <rc><c>Cu</c><c>   1</c></rc>
    <rc><c>Cu</c><c>   1</c></rc>
    <rc><c>Cu</c><c>   1</c></rc>
    <rc><c>Cu</c><c>   1</c></rc>
    <rc><c>Cu</c><c>   1</c></rc>
    <rc><c>Cu</c><c>   1</c></rc>
    <rc><c>Cu</c><c>   1</c></rc>
    <rc><c>Cu</c><c>   1</c></rc>
    <rc><c>Cu</c><c>   1</c></rc>
    <rc><c>Cu</c><c>   1</c></rc>
    <rc><c>Cu</c><c>   1</c></rc>
    <rc><c>Cu</c><c>   1</c></rc>
    <rc><c>Cu</c><c>   1</c></rc>
    <rc><c>Cu</c><c>   1</c></rc>
    <rc><c>Cu</c><c>   1</c></rc>
    <rc><c>Cu</c><c>   1</c></rc>
    <rc><c>H </c><c>   2</c></rc>
    <rc><c>H </c><c>   2</c></rc>
   </set>
  </array>
  <array name="atomtypes" >
   <dimension dim="1">type</dimension>
   <field type="int">atomspertype</field>
   <field type="string">element</field>
   <field>mass</field>
   <field>valence</field>
   <field type="string">pseudopotential</field>
   <set>
    <rc><c> 144</c><c>Cu</c><c>     63.54600000</c><c>     11.00000000</c><c>  PAW_PBE Cu 22Jun2005                  </c></rc>
    <rc><c>   2</c><c>H </c><c>      1.00000000</c><c>      1.00000000</c><c>  PAW_PBE H 15Jun2001                   </c></rc>
   </set>
  </array>
 </atominfo>
 <structure name="initialpos" >
  <crystal>
   <varray name="basis" >
    <v>      10.89000034       0.00000000       0.00000000 </v>
    <v>       0.00000000      10.89000034       0.00000000 </v>
    <v>       0.00000000       0.00000000      27.70499992 </v>
   </varray>
   <i name="volume">   3285.59432860 </i>
   <varray name="rec_basis" >
    <v>       0.09182736       0.00000000       0.00000000 </v>
    <v>       0.00000000       0.09182736       0.00000000 </v>
    <v>       0.00000000       0.00000000       0.03609457 </v>
   </varray>
  </crystal>
  <varray name="positions" >
   <v>       0.00000000       0.00000000       0.00000000 </v>
   <v>       0.00000000       0.33333333       0.00000000 </v>
   <v>       0.00000000       0.66666667       0.00000000 </v>
   <v>       0.33333333       0.00000000       0.00000000 </v>
   <v>       0.33333333       0.33333333       0.00000000 </v>
   <v>       0.33333333       0.66666667       0.00000000 </v>
   <v>       0.66666667       0.00000000       0.00000000 </v>
   <v>       0.66666667       0.33333333       0.00000000 </v>
   <v>       0.66666667       0.66666667       0.00000000 </v>
   <v>       0.16666667       0.16666667       0.00000000 </v>
   <v>       0.16666667       0.50000000       0.00000000 </v>
   <v>       0.16666667       0.83333333       0.00000000 </v>
   <v>       0.50000000       0.16666667       0.00000000 </v>
   <v>       0.50000000       0.50000000       0.00000000 </v>
   <v>       0.50000000       0.83333333       0.00000000 </v>
   <v>       0.83333333       0.16666667       0.00000000 </v>
   <v>       0.83333333       0.50000000       0.00000000 </v>
   <v>       0.83333333       0.83333333       0.00000000 </v>
   <v>       0.00000000       0.16666667       0.06551164 </v>
   <v>       0.00000000       0.50000000       0.06551164 </v>
   <v>       0.00000000       0.83333333       0.06551164 </v>
   <v>       0.33333333       0.16666667       0.06551164 </v>
   <v>       0.33333333       0.50000000       0.06551164 </v>
   <v>       0.33333333       0.83333333       0.06551164 </v>
   <v>       0.66666667       0.16666667       0.06551164 </v>
   <v>       0.66666667       0.50000000       0.06551164 </v>
   <v>       0.66666667       0.83333333       0.06551164 </v>
   <v>       0.16666667       0.00000000       0.06551164 </v>
   <v>       0.16666667       0.33333333       0.06551164 </v>
   <v>       0.16666667       0.66666667       0.06551164 </v>
   <v>       0.50000000       0.00000000       0.06551164 </v>
   <v>       0.50000000       0.33333333       0.06551164 </v>
   <v>       0.50000000       0.66666667       0.06551164 </v>
   <v>       0.83333333       0.00000000       0.06551164 </v>
   <v>       0.83333333       0.33333333       0.06551164 </v>
   <v>       0.83333333       0.66666667       0.06551164 </v>
   <v>       0.00000000       0.00000000       0.13119553 </v>
   <v>       0.00000000       0.33333333       0.13119553 </v>
   <v>       0.00000000       0.66666667       0.13119553 </v>
   <v>       0.33333333       0.00000000       0.13119553 </v>
   <v>       0.33333333       0.33333333       0.13119553 </v>
   <v>       0.33333333       0.66666667       0.13119553 </v>
   <v>       0.66666667       0.00000000       0.13119553 </v>
   <v>       0.66666667       0.33333333       0.13119553 </v>
   <v>       0.66666667       0.66666667       0.13119553 </v>
   <v>       0.16666667       0.16666667       0.13119553 </v>
   <v>       0.16666667       0.50000000       0.13119553 </v>
   <v>       0.16666667       0.83333333       0.13119553 </v>
   <v>       0.50000000       0.16666667       0.13119553 </v>
   <v>       0.50000000       0.50000000       0.13119553 </v>
   <v>       0.50000000       0.83333333       0.13119553 </v>
   <v>       0.83333333       0.16666667       0.13119553 </v>
   <v>       0.83333333       0.50000000       0.13119553 </v>
   <v>       0.83333333       0.83333333       0.13119553 </v>
   <v>       0.00000000       0.16666667       0.19620680 </v>
   <v>       0.00000000       0.50000000       0.19620680 </v>
   <v>       0.00000000       0.83333333       0.19620680 </v>
   <v>       0.33333333       0.16666667       0.19620680 </v>
   <v>       0.33333333       0.50000000       0.19620680 </v>
   <v>       0.33333333       0.83333333       0.19620680 </v>
   <v>       0.66666667       0.16666667       0.19620680 </v>
   <v>       0.66666667       0.50000000       0.19620680 </v>
   <v>       0.66666667       0.83333333       0.19620680 </v>
   <v>       0.16666667       0.00000000       0.19620680 </v>
   <v>       0.16666667       0.33333333       0.19620680 </v>
   <v>       0.16666667       0.66666667       0.19620680 </v>
   <v>       0.50000000       0.00000000       0.19620680 </v>
   <v>       0.50000000       0.33333333       0.19620680 </v>
   <v>       0.50000000       0.66666667       0.19620680 </v>
   <v>       0.83333333       0.00000000       0.19620680 </v>
   <v>       0.83333333       0.33333333       0.19620680 </v>
   <v>       0.83333333       0.66666667       0.19620680 </v>
   <v>       0.00000000       0.00000000       0.25873860 </v>
   <v>       0.00000000       0.33333333       0.25873860 </v>
   <v>       0.00000000       0.66666667       0.25873860 </v>
   <v>       0.33333333       0.00000000       0.25873860 </v>
   <v>       0.33333333       0.33333333       0.25873860 </v>
   <v>       0.33333333       0.66666667       0.25873860 </v>
   <v>       0.66666667       0.00000000       0.25873860 </v>
   <v>       0.66666667       0.33333333       0.25873860 </v>
   <v>       0.66666667       0.66666667       0.25873860 </v>
   <v>       0.16666667       0.16666667       0.25873860 </v>
   <v>       0.16666667       0.50000000       0.25873860 </v>
   <v>       0.16666667       0.83333333       0.25873860 </v>
   <v>       0.50000000       0.16666667       0.25873860 </v>
   <v>       0.50000000       0.50000000       0.25873860 </v>
   <v>       0.50000000       0.83333333       0.25873860 </v>
   <v>       0.83333333       0.16666667       0.25873860 </v>
   <v>       0.83333333       0.50000000       0.25873860 </v>
   <v>       0.83333333       0.83333333       0.25873860 </v>
   <v>       0.00000000       0.16666667       0.32119954 </v>
   <v>       0.00000000       0.50000000       0.32119954 </v>
   <v>       0.00000000       0.83333333       0.32119954 </v>
   <v>       0.33333333       0.16666667       0.32119954 </v>
   <v>       0.33333333       0.50000000       0.32119954 </v>
   <v>       0.33333333       0.83333333       0.32119954 </v>
   <v>       0.66666667       0.16666667       0.32119954 </v>
   <v>       0.66666667       0.50000000       0.32119954 </v>
   <v>       0.66666667       0.83333333       0.32119954 </v>
   <v>       0.16666667       0.00000000       0.32119954 </v>
   <v>       0.16666667       0.33333333       0.32119954 </v>
   <v>       0.16666667       0.66666667       0.32119954 </v>
   <v>       0.50000000       0.00000000       0.32119954 </v>
   <v>       0.50000000       0.33333333       0.32119954 </v>
   <v>       0.50000000       0.66666667       0.32119954 </v>
   <v>       0.83333333       0.00000000       0.32119954 </v>
   <v>       0.83333333       0.33333333       0.32119954 </v>
   <v>       0.83333333       0.66666667       0.32119954 </v>
   <v>       0.00000000       0.00000000       0.38476372 </v>
   <v>       0.00000000       0.33333333       0.38476372 </v>
   <v>       0.00000000       0.66666667       0.38476372 </v>
   <v>       0.33333333       0.00000000       0.38476372 </v>
   <v>       0.33333333       0.33333333       0.38476372 </v>
   <v>       0.33333333       0.66666667       0.38476372 </v>
   <v>       0.66666667       0.00000000       0.38476372 </v>
   <v>       0.66666667       0.33333333       0.38476372 </v>
   <v>       0.66666667       0.66666667       0.38476372 </v>
   <v>       0.16666667       0.16666667       0.38476372 </v>
   <v>       0.16666667       0.50000000       0.38476372 </v>
   <v>       0.16666667       0.83333333       0.38476372 </v>
   <v>       0.50000000       0.16666667       0.38476372 </v>
   <v>       0.50000000       0.50000000       0.38476372 </v>
   <v>       0.50000000       0.83333333       0.38476372 </v>
   <v>       0.83333333       0.16666667       0.38476372 </v>
   <v>       0.83333333       0.50000000       0.38476372 </v>
   <v>       0.83333333       0.83333333       0.38476372 </v>
   <v>       0.00000000       0.16666667       0.44736473 </v>
   <v>       0.00000000       0.50000000       0.44736473 </v>
   <v>       0.00000000       0.83333333       0.44736473 </v>
   <v>       0.33333333       0.16666667       0.44736473 </v>
   <v>       0.33333333       0.50000000       0.44736473 </v>
   <v>       0.33333333       0.83333333       0.44736473 </v>
   <v>       0.66666667       0.16666667       0.44736473 </v>
   <v>       0.66666667       0.50000000       0.44736473 </v>
   <v>       0.66666667       0.83333333       0.44736473 </v>
   <v>       0.16666667       0.00000000       0.44736473 </v>
   <v>       0.16666667       0.33333333       0.44736473 </v>
   <v>       0.16666667       0.66666667       0.44736473 </v>
   <v>       0.50000000       0.00000000       0.44736473 </v>
   <v>       0.50000000       0.33333333       0.44736473 </v>
   <v>       0.50000000       0.66666667       0.44736473 </v>
   <v>       0.83333333       0.00000000       0.44736473 </v>
   <v>       0.83333333       0.33333333       0.44736473 </v>
   <v>       0.83333333       0.66666667       0.44736473 </v>
   <v>       0.33333333       0.33333333       0.50150658 </v>
   <v>       0.33333333       0.33333333       0.52843313 </v>
  </varray>
  <varray name="selective"  type="logical" >
   <v type="logical" >  F  F  F </v>
   <v type="logical" >  F  F  F </v>
   <v type="logical" >  F  F  F </v>
   <v type="logical" >  F  F  F </v>
   <v type="logical" >  F  F  F </v>
   <v type="logical" >  F  F  F </v>
   <v type="logical" >  F  F  F </v>
   <v type="logical" >  F  F  F </v>
   <v type="logical" >  F  F  F </v>
   <v type="logical" >  F  F  F </v>
   <v type="logical" >  F  F  F </v>
   <v type="logical" >  F  F  F </v>
   <v type="logical" >  F  F  F </v>
   <v type="logical" >  F  F  F </v>
   <v type="logical" >  F  F  F </v>
   <v type="logical" >  F  F  F </v>
   <v type="logical" >  F  F  F </v>
   <v type="logical" >  F  F  F </v>
   <v type="logical" >  F  F  F </v>
   <v type="logical" >  F  F  F </v>
   <v type="logical" >  F  F  F </v>
   <v type="logical" >  F  F  F </v>
   <v type="logical" >  F  F  F </v>
   <v type="logical" >  F  F  F </v>
   <v type="logical" >  F  F  F </v>
   <v type="logical" >  F  F  F </v>
   <v type="logical" >  F  F  F </v>
   <v type="logical" >  F  F  F </v>
   <v type="logical" >  F  F  F </v>
   <v type="logical" >  F  F  F </v>
   <v type="logical" >  F  F  F </v>
   <v type="logical" >  F  F  F </v>
   <v type="logical" >  F  F  F </v>
   <v type="logical" >  F  F  F </v>
   <v type="logical" >  F  F  F </v>
   <v type="logical" >  F  F  F </v>
   <v type="logical" >  F  F  F </v>
   <v type="logical" >  F  F  F </v>
   <v type="logical" >  F  F  F </v>
   <v type="logical" >  F  F  F </v>
   <v type="logical" >  F  F  F </v>
   <v type="logical" >  F  F  F </v>
   <v type="logical" >  F  F  F </v>
   <v type="logical" >  F  F  F </v>
   <v type="logical" >  F  F  F </v>
   <v type="logical" >  F  F  F </v>
   <v type="logical" >  F  F  F </v>
   <v type="logical" >  F  F  F </v>
   <v type="logical" >  F  F  F </v>
   <v type="logical" >  F  F  F </v>
   <v type="logical" >  F  F  F </v>
   <v type="logical" >  F  F  F </v>
   <v type="logical" >  F  F  F </v>
   <v type="logical" >  F  F  F </v>
   <v type="logical" >  T  T  T </v>
   <v type="logical" >  T  T  T </v>
   <v type="logical" >  T  T  T </v>
   <v type="logical" >  T  T  T </v>
   <v type="logical" >  T  T  T </v>
   <v type="logical" >  T  T  T </v>
   <v type="logical" >  T  T  T </v>
   <v type="logical" >  T  T  T </v>
   <v type="logical" >  T  T  T </v>
   <v type="logical" >  T  T  T </v>
   <v type="logical" >  T  T  T </v>
   <v type="logical" >  T  T  T </v>
   <v type="logical" >  T  T  T </v>
   <v type="logical" >  T  T  T </v>
   <v type="logical" >  T  T  T </v>
   <v type="logical" >  T  T  T </v>
   <v type="logical" >  T  T  T </v>
   <v type="logical" >  T  T  T </v>
   <v type="logical" >  T  T  T </v>
   <v type="logical" >  T  T  T </v>
   <v type="logical" >  T  T  T </v>
   <v type="logical" >  T  T  T </v>
   <v type="logical" >  T  T  T </v>
   <v type="logical" >  T  T  T </v>
   <v type="logical" >  T  T  T </v>
   <v type="logical" >  T  T  T </v>
   <v type="logical" >  T  T  T </v>
   <v type="logical" >  T  T  T </v>
   <v type="logical" >  T  T  T </v>
   <v type="logical" >  T  T  T </v>
   <v type="logical" >  T  T  T </v>
   <v type="logical" >  T  T  T </v>
   <v type="logical" >  T  T  T </v>
   <v type="logical" >  T  T  T </v>
   <v type="logical" >  T  T  T </v>
   <v type="logical" >  T  T  T </v>
   <v type="logical" >  T  T  T </v>
   <v type="logical" >  T  T  T </v>
   <v type="logical" >  T  T  T </v>
   <v type="logical" >  T  T  T </v>
   <v type="logical" >  T  T  T </v>
   <v type="logical" >  T  T  T </v>
   <v type="logical" >  T  T  T </v>
   <v type="logical" >  T  T  T </v>
   <v type="logical" >  T  T  T </v>
   <v type="logical" >  T  T  T </v>
   <v type="logical" >  T  T  T </v>
   <v type="logical" >  T  T  T </v>
   <v type="logical" >  T  T  T </v>
   <v type="logical" >  T  T  T </v>
   <v type="logical" >  T  T  T </v>
   <v type="logical" >  T  T  T </v>
   <v type="logical" >  T  T  T </v>
   <v type="logical" >  T  T  T </v>
   <v type="logical" >  T  T  T </v>
   <v type="logical" >  T  T  T </v>
   <v type="logical" >  T  T  T </v>
   <v type="logical" >  T  T  T </v>
   <v type="logical" >  T  T  T </v>
   <v type="logical" >  T  T  T </v>
   <v type="logical" >  T  T  T </v>
   <v type="logical" >  T  T  T </v>
   <v type="logical" >  T  T  T </v>
   <v type="logical" >  T  T  T </v>
   <v type="logical" >  T  T  T </v>
   <v type="logical" >  T  T  T </v>
   <v type="logical" >  T  T  T </v>
   <v type="logical" >  T  T  T </v>
   <v type="logical" >  T  T  T </v>
   <v type="logical" >  T  T  T </v>
   <v type="logical" >  T  T  T </v>
   <v type="logical" >  T  T  T </v>
   <v type="logical" >  T  T  T </v>
   <v type="logical" >  T  T  T </v>
   <v type="logical" >  T  T  T </v>
   <v type="logical" >  T  T  T </v>
   <v type="logical" >  T  T  T </v>
   <v type="logical" >  T  T  T </v>
   <v type="logical" >  T  T  T </v>
   <v type="logical" >  T  T  T </v>
   <v type="logical" >  T  T  T </v>
   <v type="logical" >  T  T  T </v>
   <v type="logical" >  T  T  T </v>
   <v type="logical" >  T  T  T </v>
   <v type="logical" >  T  T  T </v>
   <v type="logical" >  T  T  T </v>
   <v type="logical" >  T  T  T </v>
   <v type="logical" >  T  T  T </v>
   <v type="logical" >  T  T  T </v>
   <v type="logical" >  T  T  T </v>
   <v type="logical" >  T  T  T </v>
   <v type="logical" >  T  T  T </v>
  </varray>
  <nose>
   <v>      -3.00000000       0.00000000       0.00010000       0.00010000 </v>
  </nose>
 </structure>
 <calculation>
  <scstep>
   <time name="dav">  566.82  573.03</time>
   <time name="total">  567.13  573.37</time>
   <energy>
    <i name="alphaZ">   4623.72760507 </i>
    <i name="ewald"> 915835.33162955 </i>
    <i name="hartreedc">**************** </i>
    <i name="XCdc">   6596.93189895 </i>
    <i name="pawpsdc"> 176849.62809079 </i>
    <i name="pawaedc">-192088.21954245 </i>
    <i name="eentropy">      0.00019286 </i>
    <i name="bandstr">  15981.85846515 </i>
    <i name="atom"> 200322.85745410 </i>
    <i name="e_fr_energy">  15516.21808886 </i>
    <i name="e_wo_entrp">  15516.21789601 </i>
    <i name="e_0_energy">  15516.21802458 </i>
   </energy>
  </scstep>
  <scstep>
   <time name="dav">  562.41  568.32</time>
   <time name="total">  562.42  568.33</time>
   <energy>
    <i name="e_fr_energy">   2254.29208221 </i>
    <i name="e_wo_entrp">   2254.28486957 </i>
    <i name="e_0_energy">   2254.28967800 </i>
   </energy>
  </scstep>
  <scstep>
   <time name="dav">  566.46  572.62</time>
   <time name="total">  566.48  572.64</time>
   <energy>
    <i name="e_fr_energy">   -388.08379368 </i>
    <i name="e_wo_entrp">   -388.20073832 </i>
    <i name="e_0_energy">   -388.12277523 </i>
   </energy>
  </scstep>
  <scstep>
   <time name="dav">  603.60  609.95</time>
   <time name="total">  603.62  609.97</time>
   <energy>
    <i name="e_fr_energy">   -608.10768834 </i>
    <i name="e_wo_entrp">   -608.35610616 </i>
    <i name="e_0_energy">   -608.19049428 </i>
   </energy>
  </scstep>
  <scstep>
   <time name="dav">  612.34  618.50</time>
   <time name="total">  615.80  621.99</time>
   <energy>
    <i name="e_fr_energy">   -614.01429298 </i>
    <i name="e_wo_entrp">   -614.26466053 </i>
    <i name="e_0_energy">   -614.09774883 </i>
   </energy>
  </scstep>
  <scstep>
   <time name="dav">  603.60  609.87</time>
   <time name="total">  607.29  613.60</time>
   <energy>
    <i name="e_fr_energy">   -500.68261087 </i>
    <i name="e_wo_entrp">   -500.62425753 </i>
    <i name="e_0_energy">   -500.66315976 </i>
   </energy>
  </scstep>
  <scstep>
   <time name="dav">  607.86  614.08</time>
   <time name="total">  611.61  617.86</time>
   <energy>
    <i name="e_fr_energy">   -441.32482987 </i>
    <i name="e_wo_entrp">   -441.26979180 </i>
    <i name="e_0_energy">   -441.30648385 </i>
   </energy>
  </scstep>
  <scstep>
   <time name="dav">  631.88  638.30</time>
   <time name="total">  635.60  642.05</time>
   <energy>
    <i name="e_fr_energy">   -442.45126863 </i>
    <i name="e_wo_entrp">   -442.42201896 </i>
    <i name="e_0_energy">   -442.44151874 </i>
   </energy>
  </scstep>
  <scstep>
   <time name="dav">  713.38  721.03</time>
   <time name="total">  717.16  724.84</time>
   <energy>
    <i name="e_fr_energy">   -434.10617109 </i>
    <i name="e_wo_entrp">   -434.10586540 </i>
    <i name="e_0_energy">   -434.10606919 </i>
   </energy>
  </scstep>
  <scstep>
   <time name="dav">  768.90  776.44</time>
   <time name="total">  772.54  780.11</time>
   <energy>
    <i name="e_fr_energy">   -429.65805209 </i>
    <i name="e_wo_entrp">   -429.56585754 </i>
    <i name="e_0_energy">   -429.62732057 </i>
   </energy>
  </scstep>
  <scstep>
   <time name="dav">  844.72  853.45</time>
   <time name="total">  848.34  857.10</time>
   <energy>
    <i name="e_fr_energy">   -432.86244834 </i>
    <i name="e_wo_entrp">   -432.76659055 </i>
    <i name="e_0_energy">   -432.83049574 </i>
   </energy>
  </scstep>
  <scstep>
   <time name="dav">  615.64  622.07</time>
   <time name="total">  619.25  625.72</time>
   <energy>
    <i name="e_fr_energy">   -442.71355457 </i>
    <i name="e_wo_entrp">   -442.61885271 </i>
    <i name="e_0_energy">   -442.68198728 </i>
   </energy>
  </scstep>
  <scstep>
   <time name="dav">  655.36  662.19</time>
   <time name="total">  659.10  665.96</time>
   <energy>
    <i name="e_fr_energy">   -445.86745288 </i>
    <i name="e_wo_entrp">   -445.80113482 </i>
    <i name="e_0_energy">   -445.84534686 </i>
   </energy>
  </scstep>
  <scstep>
   <time name="dav">  615.27  621.52</time>
   <time name="total">  618.94  625.22</time>
   <energy>
    <i name="e_fr_energy">   -456.56594330 </i>
    <i name="e_wo_entrp">   -456.51718454 </i>
    <i name="e_0_energy">   -456.54969038 </i>
   </energy>
  </scstep>
  <scstep>
   <time name="dav">  673.44  680.60</time>
   <time name="total">  677.21  684.40</time>
   <energy>
    <i name="e_fr_energy">   -469.16053697 </i>
    <i name="e_wo_entrp">   -469.17903565 </i>
    <i name="e_0_energy">   -469.16670320 </i>
   </energy>
  </scstep>
  <scstep>
   <time name="dav">  690.31  697.65</time>
   <time name="total">  693.94  701.32</time>
   <energy>
    <i name="e_fr_energy">   -488.50308084 </i>
    <i name="e_wo_entrp">   -488.61382063 </i>
    <i name="e_0_energy">   -488.53999410 </i>
   </energy>
  </scstep>
  <scstep>
   <time name="dav">  618.00  624.58</time>
   <time name="total">  621.67  628.28</time>
   <energy>
    <i name="e_fr_energy">   -495.51836326 </i>
    <i name="e_wo_entrp">   -495.65299515 </i>
    <i name="e_0_energy">   -495.56324055 </i>
   </energy>
  </scstep>
  <scstep>
   <time name="dav">  639.83  646.49</time>
   <time name="total">  643.53  650.23</time>
   <energy>
    <i name="e_fr_energy">   -498.95857785 </i>
    <i name="e_wo_entrp">   -499.10499263 </i>
    <i name="e_0_energy">   -499.00738278 </i>
   </energy>
  </scstep>
  <scstep>
   <time name="dav">  704.13  711.78</time>
   <time name="total">  707.77  715.45</time>
   <energy>
    <i name="e_fr_energy">   -505.84436847 </i>
    <i name="e_wo_entrp">   -505.99107243 </i>
    <i name="e_0_energy">   -505.89326979 </i>
   </energy>
  </scstep>
  <scstep>
   <time name="dav">  588.81  595.44</time>
   <time name="total">  592.52  599.18</time>
   <energy>
    <i name="e_fr_energy">   -510.33955056 </i>
    <i name="e_wo_entrp">   -510.46505713 </i>
    <i name="e_0_energy">   -510.38138608 </i>
   </energy>
  </scstep>
  <scstep>
   <time name="dav">  742.69  751.03</time>
   <time name="total">  746.29  754.66</time>
   <energy>
    <i name="e_fr_energy">   -513.35128762 </i>
    <i name="e_wo_entrp">   -513.46639031 </i>
    <i name="e_0_energy">   -513.38965518 </i>
   </energy>
  </scstep>
  <scstep>
   <time name="dav">  654.77  662.29</time>
   <time name="total">  658.40  665.95</time>
   <energy>
    <i name="e_fr_energy">   -515.51996782 </i>
    <i name="e_wo_entrp">   -515.63456232 </i>
    <i name="e_0_energy">   -515.55816599 </i>
   </energy>
  </scstep>
  <scstep>
   <time name="dav">  648.40  655.60</time>
   <time name="total">  652.06  659.28</time>
   <energy>
    <i name="e_fr_energy">   -516.85276656 </i>
    <i name="e_wo_entrp">   -516.96561542 </i>
    <i name="e_0_energy">   -516.89038285 </i>
   </energy>
  </scstep>
  <scstep>
   <time name="dav">  700.68  707.81</time>
   <time name="total">  704.34  711.50</time>
   <energy>
    <i name="e_fr_energy">   -518.35013012 </i>
    <i name="e_wo_entrp">   -518.47122607 </i>
    <i name="e_0_energy">   -518.39049544 </i>
   </energy>
  </scstep>
  <scstep>
   <time name="dav">  647.20  654.63</time>
   <time name="total">  650.85  658.32</time>
   <energy>
    <i name="e_fr_energy">   -519.37606850 </i>
    <i name="e_wo_entrp">   -519.49051644 </i>
    <i name="e_0_energy">   -519.41421781 </i>
   </energy>
  </scstep>
  <scstep>
   <time name="dav">  623.66  630.61</time>
   <time name="total">  627.32  634.31</time>
   <energy>
    <i name="e_fr_energy">   -519.99467969 </i>
    <i name="e_wo_entrp">   -520.10836835 </i>
    <i name="e_0_energy">   -520.03257591 </i>
   </energy>
  </scstep>
  <scstep>
   <time name="dav">  602.33  609.05</time>
   <time name="total">  606.02  612.78</time>
   <energy>
    <i name="e_fr_energy">   -520.73659902 </i>
    <i name="e_wo_entrp">   -520.84991032 </i>
    <i name="e_0_energy">   -520.77436946 </i>
   </energy>
  </scstep>
  <scstep>
   <time name="dav">  687.85  695.69</time>
   <time name="total">  691.52  699.38</time>
   <energy>
    <i name="e_fr_energy">   -521.48374405 </i>
    <i name="e_wo_entrp">   -521.59617985 </i>
    <i name="e_0_energy">   -521.52122265 </i>
   </energy>
  </scstep>
  <scstep>
   <time name="dav">  637.62  644.98</time>
   <time name="total">  641.30  648.69</time>
   <energy>
    <i name="e_fr_energy">   -521.54651966 </i>
    <i name="e_wo_entrp">   -521.66052296 </i>
    <i name="e_0_energy">   -521.58452076 </i>
   </energy>
  </scstep>
  <scstep>
   <time name="dav">  643.28  650.43</time>
   <time name="total">  646.93  654.10</time>
   <energy>
    <i name="e_fr_energy">   -521.57138443 </i>
    <i name="e_wo_entrp">   -521.68607635 </i>
    <i name="e_0_energy">   -521.60961507 </i>
   </energy>
  </scstep>
  <scstep>
   <time name="dav">  592.68  599.58</time>
   <time name="total">  596.39  603.32</time>
   <energy>
    <i name="e_fr_energy">   -521.58659178 </i>
    <i name="e_wo_entrp">   -521.70028368 </i>
    <i name="e_0_energy">   -521.62448908 </i>
   </energy>
  </scstep>
  <scstep>
   <time name="dav">  445.35  450.55</time>
   <time name="total">  449.15  454.38</time>
   <energy>
    <i name="e_fr_energy">   -521.58820725 </i>
    <i name="e_wo_entrp">   -521.70165758 </i>
    <i name="e_0_energy">   -521.62602402 </i>
   </energy>
  </scstep>
  <scstep>
   <time name="dav">  428.52  433.58</time>
   <time name="total">  432.17  437.27</time>
   <energy>
    <i name="e_fr_energy">   -521.58858882 </i>
    <i name="e_wo_entrp">   -521.70225972 </i>
    <i name="e_0_energy">   -521.62647912 </i>
   </energy>
  </scstep>
  <scstep>
   <time name="dav">  410.89  415.38</time>
   <time name="total">  411.22  415.73</time>
   <energy>
    <i name="alphaZ">   4623.72760507 </i>
    <i name="ewald"> 915835.33162955 </i>
    <i name="hartreedc">**************** </i>
    <i name="XCdc">   6429.38385658 </i>
    <i name="pawpsdc"> 188992.35547965 </i>
    <i name="pawaedc">-204511.92757424 </i>
    <i name="eentropy">      0.11371374 </i>
    <i name="bandstr">  -1762.65468090 </i>
    <i name="atom"> 200322.85745410 </i>
    <i name="e_fr_energy">   -521.58860364 </i>
    <i name="e_wo_entrp">   -521.70231738 </i>
    <i name="e_0_energy">   -521.62650822 </i>
   </energy>
  </scstep>
  <structure>
   <crystal>
    <varray name="basis" >
     <v>      10.89000034       0.00000000       0.00000000 </v>
     <v>       0.00000000      10.89000034       0.00000000 </v>
     <v>       0.00000000       0.00000000      27.70499992 </v>
    </varray>
    <i name="volume">   3285.59432860 </i>
    <varray name="rec_basis" >
     <v>       0.09182736       0.00000000       0.00000000 </v>
     <v>       0.00000000       0.09182736       0.00000000 </v>
     <v>       0.00000000       0.00000000       0.03609457 </v>
    </varray>
   </crystal>
   <varray name="positions" >
    <v>       0.00000000       0.00000000       0.00000000 </v>
    <v>       0.00000000       0.33333333       0.00000000 </v>
    <v>       0.00000000       0.66666667       0.00000000 </v>
    <v>       0.33333333       0.00000000       0.00000000 </v>
    <v>       0.33333333       0.33333333       0.00000000 </v>
    <v>       0.33333333       0.66666667       0.00000000 </v>
    <v>       0.66666667       0.00000000       0.00000000 </v>
    <v>       0.66666667       0.33333333       0.00000000 </v>
    <v>       0.66666667       0.66666667       0.00000000 </v>
    <v>       0.16666667       0.16666667       0.00000000 </v>
    <v>       0.16666667       0.50000000       0.00000000 </v>
    <v>       0.16666667       0.83333333       0.00000000 </v>
    <v>       0.50000000       0.16666667       0.00000000 </v>
    <v>       0.50000000       0.50000000       0.00000000 </v>
    <v>       0.50000000       0.83333333       0.00000000 </v>
    <v>       0.83333333       0.16666667       0.00000000 </v>
    <v>       0.83333333       0.50000000       0.00000000 </v>
    <v>       0.83333333       0.83333333       0.00000000 </v>
    <v>       0.00000000       0.16666667       0.06551164 </v>
    <v>       0.00000000       0.50000000       0.06551164 </v>
    <v>       0.00000000       0.83333333       0.06551164 </v>
    <v>       0.33333333       0.16666667       0.06551164 </v>
    <v>       0.33333333       0.50000000       0.06551164 </v>
    <v>       0.33333333       0.83333333       0.06551164 </v>
    <v>       0.66666667       0.16666667       0.06551164 </v>
    <v>       0.66666667       0.50000000       0.06551164 </v>
    <v>       0.66666667       0.83333333       0.06551164 </v>
    <v>       0.16666667       0.00000000       0.06551164 </v>
    <v>       0.16666667       0.33333333       0.06551164 </v>
    <v>       0.16666667       0.66666667       0.06551164 </v>
    <v>       0.50000000       0.00000000       0.06551164 </v>
    <v>       0.50000000       0.33333333       0.06551164 </v>
    <v>       0.50000000       0.66666667       0.06551164 </v>
    <v>       0.83333333       0.00000000       0.06551164 </v>
    <v>       0.83333333       0.33333333       0.06551164 </v>
    <v>       0.83333333       0.66666667       0.06551164 </v>
    <v>       0.00000000       0.00000000       0.13119553 </v>
    <v>       0.00000000       0.33333333       0.13119553 </v>
    <v>       0.00000000       0.66666667       0.13119553 </v>
    <v>       0.33333333       0.00000000       0.13119553 </v>
    <v>       0.33333333       0.33333333       0.13119553 </v>
    <v>       0.33333333       0.66666667       0.13119553 </v>
    <v>       0.66666667       0.00000000       0.13119553 </v>
    <v>       0.66666667       0.33333333       0.13119553 </v>
    <v>       0.66666667       0.66666667       0.13119553 </v>
    <v>       0.16666667       0.16666667       0.13119553 </v>
    <v>       0.16666667       0.50000000       0.13119553 </v>
    <v>       0.16666667       0.83333333       0.13119553 </v>
    <v>       0.50000000       0.16666667       0.13119553 </v>
    <v>       0.50000000       0.50000000       0.13119553 </v>
    <v>       0.50000000       0.83333333       0.13119553 </v>
    <v>       0.83333333       0.16666667       0.13119553 </v>
    <v>       0.83333333       0.50000000       0.13119553 </v>
    <v>       0.83333333       0.83333333       0.13119553 </v>
    <v>       0.00000000       0.16666667       0.19620680 </v>
    <v>       0.00000000       0.50000000       0.19620680 </v>
    <v>       0.00000000       0.83333333       0.19620680 </v>
    <v>       0.33333333       0.16666667       0.19620680 </v>
    <v>       0.33333333       0.50000000       0.19620680 </v>
    <v>       0.33333333       0.83333333       0.19620680 </v>
    <v>       0.66666667       0.16666667       0.19620680 </v>
    <v>       0.66666667       0.50000000       0.19620680 </v>
    <v>       0.66666667       0.83333333       0.19620680 </v>
    <v>       0.16666667       0.00000000       0.19620680 </v>
    <v>       0.16666667       0.33333333       0.19620680 </v>
    <v>       0.16666667       0.66666667       0.19620680 </v>
    <v>       0.50000000       0.00000000       0.19620680 </v>
    <v>       0.50000000       0.33333333       0.19620680 </v>
    <v>       0.50000000       0.66666667       0.19620680 </v>
    <v>       0.83333333       0.00000000       0.19620680 </v>
    <v>       0.83333333       0.33333333       0.19620680 </v>
    <v>       0.83333333       0.66666667       0.19620680 </v>
    <v>       0.00000000       0.00000000       0.25873860 </v>
    <v>       0.00000000       0.33333333       0.25873860 </v>
    <v>       0.00000000       0.66666667       0.25873860 </v>
    <v>       0.33333333       0.00000000       0.25873860 </v>
    <v>       0.33333333       0.33333333       0.25873860 </v>
    <v>       0.33333333       0.66666667       0.25873860 </v>
    <v>       0.66666667       0.00000000       0.25873860 </v>
    <v>       0.66666667       0.33333333       0.25873860 </v>
    <v>       0.66666667       0.66666667       0.25873860 </v>
    <v>       0.16666667       0.16666667       0.25873860 </v>
    <v>       0.16666667       0.50000000       0.25873860 </v>
    <v>       0.16666667       0.83333333       0.25873860 </v>
    <v>       0.50000000       0.16666667       0.25873860 </v>
    <v>       0.50000000       0.50000000       0.25873860 </v>
    <v>       0.50000000       0.83333333       0.25873860 </v>
    <v>       0.83333333       0.16666667       0.25873860 </v>
    <v>       0.83333333       0.50000000       0.25873860 </v>
    <v>       0.83333333       0.83333333       0.25873860 </v>
    <v>       0.00000000       0.16666667       0.32119954 </v>
    <v>       0.00000000       0.50000000       0.32119954 </v>
    <v>       0.00000000       0.83333333       0.32119954 </v>
    <v>       0.33333333       0.16666667       0.32119954 </v>
    <v>       0.33333333       0.50000000       0.32119954 </v>
    <v>       0.33333333       0.83333333       0.32119954 </v>
    <v>       0.66666667       0.16666667       0.32119954 </v>
    <v>       0.66666667       0.50000000       0.32119954 </v>
    <v>       0.66666667       0.83333333       0.32119954 </v>
    <v>       0.16666667       0.00000000       0.32119954 </v>
    <v>       0.16666667       0.33333333       0.32119954 </v>
    <v>       0.16666667       0.66666667       0.32119954 </v>
    <v>       0.50000000       0.00000000       0.32119954 </v>
    <v>       0.50000000       0.33333333       0.32119954 </v>
    <v>       0.50000000       0.66666667       0.32119954 </v>
    <v>       0.83333333       0.00000000       0.32119954 </v>
    <v>       0.83333333       0.33333333       0.32119954 </v>
    <v>       0.83333333       0.66666667       0.32119954 </v>
    <v>       0.00000000       0.00000000       0.38476372 </v>
    <v>       0.00000000       0.33333333       0.38476372 </v>
    <v>       0.00000000       0.66666667       0.38476372 </v>
    <v>       0.33333333       0.00000000       0.38476372 </v>
    <v>       0.33333333       0.33333333       0.38476372 </v>
    <v>       0.33333333       0.66666667       0.38476372 </v>
    <v>       0.66666667       0.00000000       0.38476372 </v>
    <v>       0.66666667       0.33333333       0.38476372 </v>
    <v>       0.66666667       0.66666667       0.38476372 </v>
    <v>       0.16666667       0.16666667       0.38476372 </v>
    <v>       0.16666667       0.50000000       0.38476372 </v>
    <v>       0.16666667       0.83333333       0.38476372 </v>
    <v>       0.50000000       0.16666667       0.38476372 </v>
    <v>       0.50000000       0.50000000       0.38476372 </v>
    <v>       0.50000000       0.83333333       0.38476372 </v>
    <v>       0.83333333       0.16666667       0.38476372 </v>
    <v>       0.83333333       0.50000000       0.38476372 </v>
    <v>       0.83333333       0.83333333       0.38476372 </v>
    <v>       0.00000000       0.16666667       0.44736473 </v>
    <v>       0.00000000       0.50000000       0.44736473 </v>
    <v>       0.00000000       0.83333333       0.44736473 </v>
    <v>       0.33333333       0.16666667       0.44736473 </v>
    <v>       0.33333333       0.50000000       0.44736473 </v>
    <v>       0.33333333       0.83333333       0.44736473 </v>
    <v>       0.66666667       0.16666667       0.44736473 </v>
    <v>       0.66666667       0.50000000       0.44736473 </v>
    <v>       0.66666667       0.83333333       0.44736473 </v>
    <v>       0.16666667       0.00000000       0.44736473 </v>
    <v>       0.16666667       0.33333333       0.44736473 </v>
    <v>       0.16666667       0.66666667       0.44736473 </v>
    <v>       0.50000000       0.00000000       0.44736473 </v>
    <v>       0.50000000       0.33333333       0.44736473 </v>
    <v>       0.50000000       0.66666667       0.44736473 </v>
    <v>       0.83333333       0.00000000       0.44736473 </v>
    <v>       0.83333333       0.33333333       0.44736473 </v>
    <v>       0.83333333       0.66666667       0.44736473 </v>
    <v>       0.33333333       0.33333333       0.50150658 </v>
    <v>       0.33333333       0.33333333       0.52843313 </v>
   </varray>
  </structure>
  <varray name="forces" >
   <v>       0.00010088       0.00010088       0.30876064 </v>
   <v>       0.00230599      -0.00000000       0.30956194 </v>
   <v>       0.00010088      -0.00010088       0.30876064 </v>
   <v>      -0.00000000       0.00230599       0.30956194 </v>
   <v>      -0.00000000       0.00000000       0.30800000 </v>
   <v>      -0.00000000      -0.00230599       0.30956194 </v>
   <v>      -0.00010088       0.00010088       0.30876064 </v>
   <v>      -0.00230599      -0.00000000       0.30956194 </v>
   <v>      -0.00010088      -0.00010088       0.30876064 </v>
   <v>      -0.00074536      -0.00074536       0.30950622 </v>
   <v>      -0.00074536       0.00074536       0.30950622 </v>
   <v>      -0.00121083      -0.00000000       0.30892590 </v>
   <v>       0.00074536      -0.00074536       0.30950622 </v>
   <v>       0.00074536       0.00074536       0.30950622 </v>
   <v>       0.00121083      -0.00000000       0.30892590 </v>
   <v>      -0.00000000      -0.00121083       0.30892590 </v>
   <v>      -0.00000000       0.00121083       0.30892590 </v>
   <v>      -0.00000000       0.00000000       0.30754360 </v>
   <v>       0.00226707      -0.00088561      -0.07903305 </v>
   <v>       0.00226707       0.00088561      -0.07903305 </v>
   <v>      -0.00141870       0.00000000      -0.07471881 </v>
   <v>      -0.00000000       0.00128990      -0.07650705 </v>
   <v>      -0.00000000      -0.00128990      -0.07650705 </v>
   <v>      -0.00000000      -0.00000000      -0.08032605 </v>
   <v>      -0.00226707      -0.00088561      -0.07903305 </v>
   <v>      -0.00226707       0.00088561      -0.07903305 </v>
   <v>       0.00141870      -0.00000000      -0.07471881 </v>
   <v>      -0.00088561       0.00226707      -0.07903305 </v>
   <v>       0.00128990       0.00000000      -0.07650705 </v>
   <v>      -0.00088561      -0.00226707      -0.07903305 </v>
   <v>       0.00088561       0.00226707      -0.07903305 </v>
   <v>      -0.00128990      -0.00000000      -0.07650705 </v>
   <v>       0.00088561      -0.00226707      -0.07903305 </v>
   <v>      -0.00000000      -0.00141870      -0.07471881 </v>
   <v>      -0.00000000       0.00000000      -0.08032605 </v>
   <v>      -0.00000000       0.00141870      -0.07471881 </v>
   <v>       0.00094141       0.00094141      -0.00578996 </v>
   <v>       0.00244598      -0.00000000      -0.00531067 </v>
   <v>       0.00094141      -0.00094141      -0.00578996 </v>
   <v>      -0.00000000       0.00244598      -0.00531067 </v>
   <v>      -0.00000000       0.00000000      -0.00913299 </v>
   <v>      -0.00000000      -0.00244598      -0.00531067 </v>
   <v>      -0.00094141       0.00094141      -0.00578996 </v>
   <v>      -0.00244598       0.00000000      -0.00531067 </v>
   <v>      -0.00094141      -0.00094141      -0.00578996 </v>
   <v>      -0.00183401      -0.00183401      -0.00705922 </v>
   <v>      -0.00183401       0.00183401      -0.00705922 </v>
   <v>       0.00071036       0.00000000       0.00040342 </v>
   <v>       0.00183401      -0.00183401      -0.00705922 </v>
   <v>       0.00183401       0.00183401      -0.00705922 </v>
   <v>      -0.00071036      -0.00000000       0.00040342 </v>
   <v>      -0.00000000       0.00071036       0.00040342 </v>
   <v>      -0.00000000      -0.00071036       0.00040342 </v>
   <v>      -0.00000000      -0.00000000      -0.00641574 </v>
   <v>       0.00196088      -0.00035354      -0.26318128 </v>
   <v>       0.00196088       0.00035354      -0.26318128 </v>
   <v>      -0.00211178       0.00000000      -0.27001314 </v>
   <v>      -0.00000000       0.00024306      -0.26264694 </v>
   <v>      -0.00000000      -0.00024306      -0.26264694 </v>
   <v>      -0.00000000      -0.00000000      -0.27666209 </v>
   <v>      -0.00196088      -0.00035354      -0.26318128 </v>
   <v>      -0.00196088       0.00035354      -0.26318128 </v>
   <v>       0.00211178      -0.00000000      -0.27001314 </v>
   <v>      -0.00035354       0.00196088      -0.26318128 </v>
   <v>       0.00024306       0.00000000      -0.26264694 </v>
   <v>      -0.00035354      -0.00196088      -0.26318128 </v>
   <v>       0.00035354       0.00196088      -0.26318128 </v>
   <v>      -0.00024306       0.00000000      -0.26264694 </v>
   <v>       0.00035354      -0.00196088      -0.26318128 </v>
   <v>      -0.00000000      -0.00211178      -0.27001314 </v>
   <v>      -0.00000000       0.00000000      -0.27666209 </v>
   <v>      -0.00000000       0.00211178      -0.27001314 </v>
   <v>       0.00044311       0.00044311      -0.03078149 </v>
   <v>      -0.00755148      -0.00000000      -0.04107358 </v>
   <v>       0.00044311      -0.00044311      -0.03078149 </v>
   <v>      -0.00000000      -0.00755148      -0.04107358 </v>
   <v>      -0.00000000      -0.00000000      -0.00789076 </v>
   <v>      -0.00000000       0.00755148      -0.04107358 </v>
   <v>      -0.00044311       0.00044311      -0.03078149 </v>
   <v>       0.00755148       0.00000000      -0.04107358 </v>
   <v>      -0.00044311      -0.00044311      -0.03078149 </v>
   <v>      -0.00170372      -0.00170372      -0.02557363 </v>
   <v>      -0.00170372       0.00170372      -0.02557363 </v>
   <v>       0.00092979      -0.00000000      -0.02957515 </v>
   <v>       0.00170372      -0.00170372      -0.02557363 </v>
   <v>       0.00170372       0.00170372      -0.02557363 </v>
   <v>      -0.00092979      -0.00000000      -0.02957515 </v>
   <v>      -0.00000000       0.00092979      -0.02957515 </v>
   <v>      -0.00000000      -0.00092979      -0.02957515 </v>
   <v>      -0.00000000      -0.00000000      -0.02707406 </v>
   <v>       0.00306637      -0.00114864       0.05571898 </v>
   <v>       0.00306637       0.00114864       0.05571898 </v>
   <v>      -0.00089566      -0.00000000       0.04935863 </v>
   <v>      -0.00000000      -0.00120141       0.03030188 </v>
[...]
       <r>     6.1775    16.1908   880.1998 </r>
       <r>     6.2526    14.2217   881.2683 </r>
       <r>     6.3278    13.3286   882.2697 </r>
       <r>     6.4029    14.5116   883.3600 </r>
       <r>     6.4780    18.0538   884.7165 </r>
       <r>     6.5532    23.2342   886.4622 </r>
       <r>     6.6283    29.2692   888.6613 </r>
       <r>     6.7034    35.2286   891.3081 </r>
       <r>     6.7786    39.4768   894.2742 </r>
       <r>     6.8537    40.3804   897.3081 </r>
       <r>     6.9288    37.3419   900.1137 </r>
       <r>     7.0040    30.9270   902.4374 </r>
       <r>     7.0791    23.1218   904.1746 </r>
       <r>     7.1543    17.3573   905.4788 </r>
       <r>     7.2294    16.4616   906.7156 </r>
       <r>     7.3045    20.1291   908.2280 </r>
       <r>     7.3797    25.5408   910.1469 </r>
       <r>     7.4548    30.2280   912.4181 </r>
       <r>     7.5299    32.7452   914.8784 </r>
       <r>     7.6051    31.6223   917.2543 </r>
       <r>     7.6802    26.8267   919.2699 </r>
       <r>     7.7553    21.7338   920.9028 </r>
       <r>     7.8305    20.4080   922.4361 </r>
       <r>     7.9056    23.1626   924.1764 </r>
       <r>     7.9807    26.8547   926.1941 </r>
       <r>     8.0559    28.8104   928.3588 </r>
       <r>     8.1310    29.2401   930.5557 </r>
       <r>     8.2061    29.9305   932.8045 </r>
       <r>     8.2813    30.9783   935.1320 </r>
       <r>     8.3564    30.3500   937.4123 </r>
       <r>     8.4315    27.1905   939.4552 </r>
       <r>     8.5067    23.4746   941.2190 </r>
       <r>     8.5818    22.1609   942.8840 </r>
       <r>     8.6569    24.8119   944.7482 </r>
       <r>     8.7321    29.9821   947.0009 </r>
       <r>     8.8072    34.3133   949.5790 </r>
       <r>     8.8823    36.3383   952.3092 </r>
       <r>     8.9575    36.9649   955.0865 </r>
       <r>     9.0326    36.1313   957.8012 </r>
       <r>     9.1077    32.6686   960.2557 </r>
       <r>     9.1829    27.2367   962.3021 </r>
       <r>     9.2580    22.9142   964.0238 </r>
       <r>     9.3331    23.0391   965.7548 </r>
       <r>     9.4083    27.8976   967.8508 </r>
       <r>     9.4834    33.2626   970.3500 </r>
       <r>     9.5585    34.7830   972.9634 </r>
       <r>     9.6337    33.3357   975.4680 </r>
       <r>     9.7088    32.8003   977.9324 </r>
       <r>     9.7839    34.1346   980.4971 </r>
       <r>     9.8591    34.8729   983.1172 </r>
       <r>     9.9342    33.2012   985.6117 </r>
       <r>    10.0093    30.4698   987.9011 </r>
       <r>    10.0845    29.5512   990.1213 </r>
       <r>    10.1596    31.4369   992.4833 </r>
       <r>    10.2347    35.0422   995.1162 </r>
       <r>    10.3099    39.3308   998.0712 </r>
       <r>    10.3850    42.6137  1001.2730 </r>
       <r>    10.4601    42.0976  1004.4359 </r>
       <r>    10.5353    38.0208  1007.2926 </r>
       <r>    10.6104    35.2544  1009.9414 </r>
       <r>    10.6855    37.3054  1012.7443 </r>
       <r>    10.7607    41.2242  1015.8416 </r>
       <r>    10.8358    40.8262  1018.9090 </r>
       <r>    10.9109    33.4487  1021.4222 </r>
       <r>    10.9861    21.9190  1023.0690 </r>
       <r>    11.0612    10.9437  1023.8913 </r>
       <r>    11.1363     3.4604  1024.1513 </r>
       <r>    11.2115    -0.0951  1024.1441 </r>
       <r>    11.2866    -0.9256  1024.0746 </r>
       <r>    11.3617    -0.6397  1024.0265 </r>
       <r>    11.4369    -0.2620  1024.0068 </r>
       <r>    11.5120    -0.0736  1024.0013 </r>
       <r>    11.5871    -0.0148  1024.0002 </r>
       <r>    11.6623    -0.0022  1024.0000 </r>
       <r>    11.7374    -0.0002  1024.0000 </r>
       <r>    11.8125    -0.0000  1024.0000 </r>
       <r>    11.8877    -0.0000  1024.0000 </r>
       <r>    11.9628    -0.0000  1024.0000 </r>
       <r>    12.0380    -0.0000  1024.0000 </r>
       <r>    12.1131    -0.0000  1024.0000 </r>
       <r>    12.1882    -0.0000  1024.0000 </r>
       <r>    12.2634    -0.0000  1024.0000 </r>
       <r>    12.3385     0.0000  1024.0000 </r>
       <r>    12.4136     0.0000  1024.0000 </r>
       <r>    12.4888     0.0000  1024.0000 </r>
       <r>    12.5639     0.0000  1024.0000 </r>
       <r>    12.6390     0.0000  1024.0000 </r>
       <r>    12.7142     0.0000  1024.0000 </r>
       <r>    12.7893     0.0000  1024.0000 </r>
       <r>    12.8644     0.0000  1024.0000 </r>
       <r>    12.9396     0.0000  1024.0000 </r>
       <r>    13.0147     0.0000  1024.0000 </r>
      </set>
     </set>
    </array>
   </total>
  </dos>
 </calculation>
 <structure name="finalpos" >
  <crystal>
   <varray name="basis" >
    <v>      10.89000034       0.00000000       0.00000000 </v>
    <v>       0.00000000      10.89000034       0.00000000 </v>
    <v>       0.00000000       0.00000000      27.70499992 </v>
   </varray>
   <i name="volume">   3285.59432860 </i>
   <varray name="rec_basis" >
    <v>       0.09182736       0.00000000       0.00000000 </v>
    <v>       0.00000000       0.09182736       0.00000000 </v>
    <v>       0.00000000       0.00000000       0.03609457 </v>
   </varray>
  </crystal>
  <varray name="positions" >
   <v>       0.00000000       0.00000000       0.00000000 </v>
   <v>       0.00000000       0.33333333       0.00000000 </v>
   <v>       0.00000000       0.66666667       0.00000000 </v>
   <v>       0.33333333       0.00000000       0.00000000 </v>
   <v>       0.33333333       0.33333333       0.00000000 </v>
   <v>       0.33333333       0.66666667       0.00000000 </v>
   <v>       0.66666667       0.00000000       0.00000000 </v>
   <v>       0.66666667       0.33333333       0.00000000 </v>
   <v>       0.66666667       0.66666667       0.00000000 </v>
   <v>       0.16666667       0.16666667       0.00000000 </v>
   <v>       0.16666667       0.50000000       0.00000000 </v>
   <v>       0.16666667       0.83333333       0.00000000 </v>
   <v>       0.50000000       0.16666667       0.00000000 </v>
   <v>       0.50000000       0.50000000       0.00000000 </v>
   <v>       0.50000000       0.83333333       0.00000000 </v>
   <v>       0.83333333       0.16666667       0.00000000 </v>
   <v>       0.83333333       0.50000000       0.00000000 </v>
   <v>       0.83333333       0.83333333       0.00000000 </v>
   <v>       0.00000000       0.16666667       0.06551164 </v>
   <v>       0.00000000       0.50000000       0.06551164 </v>
   <v>       0.00000000       0.83333333       0.06551164 </v>
   <v>       0.33333333       0.16666667       0.06551164 </v>
   <v>       0.33333333       0.50000000       0.06551164 </v>
   <v>       0.33333333       0.83333333       0.06551164 </v>
   <v>       0.66666667       0.16666667       0.06551164 </v>
   <v>       0.66666667       0.50000000       0.06551164 </v>
   <v>       0.66666667       0.83333333       0.06551164 </v>
   <v>       0.16666667       0.00000000       0.06551164 </v>
   <v>       0.16666667       0.33333333       0.06551164 </v>
   <v>       0.16666667       0.66666667       0.06551164 </v>
   <v>       0.50000000       0.00000000       0.06551164 </v>
   <v>       0.50000000       0.33333333       0.06551164 </v>
   <v>       0.50000000       0.66666667       0.06551164 </v>
   <v>       0.83333333       0.00000000       0.06551164 </v>
   <v>       0.83333333       0.33333333       0.06551164 </v>
   <v>       0.83333333       0.66666667       0.06551164 </v>
   <v>       0.00000000       0.00000000       0.13119553 </v>
   <v>       0.00000000       0.33333333       0.13119553 </v>
   <v>       0.00000000       0.66666667       0.13119553 </v>
   <v>       0.33333333       0.00000000       0.13119553 </v>
   <v>       0.33333333       0.33333333       0.13119553 </v>
   <v>       0.33333333       0.66666667       0.13119553 </v>
   <v>       0.66666667       0.00000000       0.13119553 </v>
   <v>       0.66666667       0.33333333       0.13119553 </v>
   <v>       0.66666667       0.66666667       0.13119553 </v>
   <v>       0.16666667       0.16666667       0.13119553 </v>
   <v>       0.16666667       0.50000000       0.13119553 </v>
   <v>       0.16666667       0.83333333       0.13119553 </v>
   <v>       0.50000000       0.16666667       0.13119553 </v>
   <v>       0.50000000       0.50000000       0.13119553 </v>
   <v>       0.50000000       0.83333333       0.13119553 </v>
   <v>       0.83333333       0.16666667       0.13119553 </v>
   <v>       0.83333333       0.50000000       0.13119553 </v>
   <v>       0.83333333       0.83333333       0.13119553 </v>
   <v>      -0.00004821       0.16663647       0.19404654 </v>
   <v>      -0.00004821       0.50003020       0.19404654 </v>
   <v>      -0.00001754       0.83333333       0.19404832 </v>
   <v>       0.33333333       0.16664035       0.19413431 </v>
   <v>       0.33333333       0.50002631       0.19413431 </v>
   <v>       0.33333333       0.83333333       0.19397352 </v>
   <v>       0.66671488       0.16663647       0.19404654 </v>
   <v>       0.66671488       0.50003020       0.19404654 </v>
   <v>       0.66668421       0.83333333       0.19404832 </v>
   <v>       0.16663647      -0.00004821       0.19404654 </v>
   <v>       0.16664035       0.33333333       0.19413431 </v>
   <v>       0.16663647       0.66671488       0.19404654 </v>
   <v>       0.50003020      -0.00004821       0.19404654 </v>
   <v>       0.50002631       0.33333333       0.19413431 </v>
   <v>       0.50003020       0.66671488       0.19404654 </v>
   <v>       0.83333333      -0.00001754       0.19404832 </v>
   <v>       0.83333333       0.33333333       0.19397352 </v>
   <v>       0.83333333       0.66668421       0.19404832 </v>
   <v>      -0.00014967      -0.00014967       0.25682309 </v>
   <v>      -0.00023718       0.33333333       0.25678922 </v>
   <v>      -0.00014967       0.66681633       0.25682309 </v>
   <v>       0.33333333      -0.00023718       0.25678922 </v>
   <v>       0.33333333       0.33333333       0.25681473 </v>
   <v>       0.33333333       0.66690385       0.25678922 </v>
   <v>       0.66681633      -0.00014967       0.25682309 </v>
   <v>       0.66690385       0.33333333       0.25678922 </v>
   <v>       0.66681633       0.66681633       0.25682309 </v>
   <v>       0.16645445       0.16645445       0.25679630 </v>
   <v>       0.16645445       0.50021222       0.25679630 </v>
   <v>       0.16652527       0.83333333       0.25681884 </v>
   <v>       0.50021222       0.16645445       0.25679630 </v>
   <v>       0.50021222       0.50021222       0.25679630 </v>
   <v>       0.50014140       0.83333333       0.25681884 </v>
   <v>       0.83333333       0.16652527       0.25681884 </v>
   <v>       0.83333333       0.50014140       0.25681884 </v>
   <v>       0.83333333       0.83333333       0.25683285 </v>
   <v>      -0.00022489       0.16646726       0.31966034 </v>
   <v>      -0.00022489       0.50019941       0.31966034 </v>
   <v>      -0.00024941       0.83333333       0.31981773 </v>
   <v>       0.33333333       0.16637557       0.31945389 </v>
   <v>       0.33333333       0.50029109       0.31945389 </v>
   <v>       0.33333333       0.83333333       0.31966122 </v>
   <v>       0.66689155       0.16646726       0.31966034 </v>
   <v>       0.66689155       0.50019941       0.31966034 </v>
   <v>       0.66691608       0.83333333       0.31981773 </v>
   <v>       0.16646726      -0.00022489       0.31966034 </v>
   <v>       0.16637557       0.33333333       0.31945389 </v>
   <v>       0.16646726       0.66689155       0.31966034 </v>
   <v>       0.50019941      -0.00022489       0.31966034 </v>
   <v>       0.50029109       0.33333333       0.31945389 </v>
   <v>       0.50019941       0.66689155       0.31966034 </v>
   <v>       0.83333333      -0.00024941       0.31981773 </v>
   <v>       0.83333333       0.33333333       0.31966122 </v>
   <v>       0.83333333       0.66691608       0.31981773 </v>
   <v>      -0.00006081      -0.00006081       0.38344501 </v>
   <v>      -0.00032923       0.33333333       0.38311707 </v>
   <v>      -0.00006081       0.66672747       0.38344501 </v>
   <v>       0.33333333      -0.00032923       0.38311707 </v>
   <v>       0.33333333       0.33333333       0.38270858 </v>
   <v>       0.33333333       0.66699589       0.38311707 </v>
   <v>       0.66672747      -0.00006081       0.38344501 </v>
   <v>       0.66699589       0.33333333       0.38311707 </v>
   <v>       0.66672747       0.66672747       0.38344501 </v>
   <v>       0.16650166       0.16650166       0.38298918 </v>
   <v>       0.16650166       0.50016501       0.38298918 </v>
   <v>       0.16654138       0.83333333       0.38336991 </v>
   <v>       0.50016501       0.16650166       0.38298918 </v>
   <v>       0.50016501       0.50016501       0.38298918 </v>
   <v>       0.50012529       0.83333333       0.38336991 </v>
   <v>       0.83333333       0.16654138       0.38336991 </v>
   <v>       0.83333333       0.50012529       0.38336991 </v>
   <v>       0.83333333       0.83333333       0.38362365 </v>
   <v>       0.00024649       0.16687991       0.44600972 </v>
   <v>       0.00024649       0.49978676       0.44600972 </v>
   <v>       0.00015468       0.83333333       0.44623695 </v>
   <v>       0.33333333       0.16660215       0.44541012 </v>
   <v>       0.33333333       0.50006452       0.44541012 </v>
   <v>       0.33333333       0.83333333       0.44605893 </v>
   <v>       0.66642018       0.16687991       0.44600972 </v>
   <v>       0.66642018       0.49978676       0.44600972 </v>
   <v>       0.66651199       0.83333333       0.44623695 </v>
   <v>       0.16687991       0.00024649       0.44600972 </v>
   <v>       0.16660215       0.33333333       0.44541012 </v>
   <v>       0.16687991       0.66642018       0.44600972 </v>
   <v>       0.49978676       0.00024649       0.44600972 </v>
   <v>       0.50006452       0.33333333       0.44541012 </v>
   <v>       0.49978676       0.66642018       0.44600972 </v>
   <v>       0.83333333       0.00015468       0.44623695 </v>
   <v>       0.83333333       0.33333333       0.44605893 </v>
   <v>       0.83333333       0.66651199       0.44623695 </v>
   <v>       0.33333333       0.33333333       0.52671176 </v>
   <v>       0.33333333       0.33333333       0.55411303 </v>
  </varray>
  <varray name="selective"  type="logical" >
   <v type="logical" >  F  F  F </v>
   <v type="logical" >  F  F  F </v>
   <v type="logical" >  F  F  F </v>
   <v type="logical" >  F  F  F </v>
   <v type="logical" >  F  F  F </v>
   <v type="logical" >  F  F  F </v>
   <v type="logical" >  F  F  F </v>
   <v type="logical" >  F  F  F </v>
   <v type="logical" >  F  F  F </v>
   <v type="logical" >  F  F  F </v>
   <v type="logical" >  F  F  F </v>
   <v type="logical" >  F  F  F </v>
   <v type="logical" >  F  F  F </v>
   <v type="logical" >  F  F  F </v>
   <v type="logical" >  F  F  F </v>
   <v type="logical" >  F  F  F </v>
   <v type="logical" >  F  F  F </v>
   <v type="logical" >  F  F  F </v>
   <v type="logical" >  F  F  F </v>
   <v type="logical" >  F  F  F </v>
   <v type="logical" >  F  F  F </v>
   <v type="logical" >  F  F  F </v>
   <v type="logical" >  F  F  F </v>
   <v type="logical" >  F  F  F </v>
   <v type="logical" >  F  F  F </v>
   <v type="logical" >  F  F  F </v>
   <v type="logical" >  F  F  F </v>
   <v type="logical" >  F  F  F </v>
   <v type="logical" >  F  F  F </v>
   <v type="logical" >  F  F  F </v>
   <v type="logical" >  F  F  F </v>
   <v type="logical" >  F  F  F </v>
   <v type="logical" >  F  F  F </v>
   <v type="logical" >  F  F  F </v>
   <v type="logical" >  F  F  F </v>
   <v type="logical" >  F  F  F </v>
   <v type="logical" >  F  F  F </v>
   <v type="logical" >  F  F  F </v>
   <v type="logical" >  F  F  F </v>
   <v type="logical" >  F  F  F </v>
   <v type="logical" >  F  F  F </v>
   <v type="logical" >  F  F  F </v>
   <v type="logical" >  F  F  F </v>
   <v type="logical" >  F  F  F </v>
   <v type="logical" >  F  F  F </v>
   <v type="logical" >  F  F  F </v>
   <v type="logical" >  F  F  F </v>
   <v type="logical" >  F  F  F </v>
   <v type="logical" >  F  F  F </v>
   <v type="logical" >  F  F  F </v>
   <v type="logical" >  F  F  F </v>
   <v type="logical" >  F  F  F </v>
   <v type="logical" >  F  F  F </v>
   <v type="logical" >  F  F  F </v>
   <v type="logical" >  T  T  T </v>
   <v type="logical" >  T  T  T </v>
   <v type="logical" >  T  T  T </v>
   <v type="logical" >  T  T  T </v>
   <v type="logical" >  T  T  T </v>
   <v type="logical" >  T  T  T </v>
   <v type="logical" >  T  T  T </v>
   <v type="logical" >  T  T  T </v>
   <v type="logical" >  T  T  T </v>
   <v type="logical" >  T  T  T </v>
   <v type="logical" >  T  T  T </v>
   <v type="logical" >  T  T  T </v>
   <v type="logical" >  T  T  T </v>
   <v type="logical" >  T  T  T </v>
   <v type="logical" >  T  T  T </v>
   <v type="logical" >  T  T  T </v>
   <v type="logical" >  T  T  T </v>
   <v type="logical" >  T  T  T </v>
   <v type="logical" >  T  T  T </v>
   <v type="logical" >  T  T  T </v>
   <v type="logical" >  T  T  T </v>
   <v type="logical" >  T  T  T </v>
   <v type="logical" >  T  T  T </v>
   <v type="logical" >  T  T  T </v>
   <v type="logical" >  T  T  T </v>
   <v type="logical" >  T  T  T </v>
   <v type="logical" >  T  T  T </v>
   <v type="logical" >  T  T  T </v>
   <v type="logical" >  T  T  T </v>
   <v type="logical" >  T  T  T </v>
   <v type="logical" >  T  T  T </v>
   <v type="logical" >  T  T  T </v>
   <v type="logical" >  T  T  T </v>
   <v type="logical" >  T  T  T </v>
   <v type="logical" >  T  T  T </v>
   <v type="logical" >  T  T  T </v>
   <v type="logical" >  T  T  T </v>
   <v type="logical" >  T  T  T </v>
   <v type="logical" >  T  T  T </v>
   <v type="logical" >  T  T  T </v>
   <v type="logical" >  T  T  T </v>
   <v type="logical" >  T  T  T </v>
   <v type="logical" >  T  T  T </v>
   <v type="logical" >  T  T  T </v>
   <v type="logical" >  T  T  T </v>
   <v type="logical" >  T  T  T </v>
   <v type="logical" >  T  T  T </v>
   <v type="logical" >  T  T  T </v>
   <v type="logical" >  T  T  T </v>
   <v type="logical" >  T  T  T </v>
   <v type="logical" >  T  T  T </v>
   <v type="logical" >  T  T  T </v>
   <v type="logical" >  T  T  T </v>
   <v type="logical" >  T  T  T </v>
   <v type="logical" >  T  T  T </v>
   <v type="logical" >  T  T  T </v>
   <v type="logical" >  T  T  T </v>
   <v type="logical" >  T  T  T </v>
   <v type="logical" >  T  T  T </v>
   <v type="logical" >  T  T  T </v>
   <v type="logical" >  T  T  T </v>
   <v type="logical" >  T  T  T </v>
   <v type="logical" >  T  T  T </v>
   <v type="logical" >  T  T  T </v>
   <v type="logical" >  T  T  T </v>
   <v type="logical" >  T  T  T </v>
   <v type="logical" >  T  T  T </v>
   <v type="logical" >  T  T  T </v>
   <v type="logical" >  T  T  T </v>
   <v type="logical" >  T  T  T </v>
   <v type="logical" >  T  T  T </v>
   <v type="logical" >  T  T  T </v>
   <v type="logical" >  T  T  T </v>
   <v type="logical" >  T  T  T </v>
   <v type="logical" >  T  T  T </v>
   <v type="logical" >  T  T  T </v>
   <v type="logical" >  T  T  T </v>
   <v type="logical" >  T  T  T </v>
   <v type="logical" >  T  T  T </v>
   <v type="logical" >  T  T  T </v>
   <v type="logical" >  T  T  T </v>
   <v type="logical" >  T  T  T </v>
   <v type="logical" >  T  T  T </v>
   <v type="logical" >  T  T  T </v>
   <v type="logical" >  T  T  T </v>
   <v type="logical" >  T  T  T </v>
   <v type="logical" >  T  T  T </v>
   <v type="logical" >  T  T  T </v>
   <v type="logical" >  T  T  T </v>
   <v type="logical" >  T  T  T </v>
   <v type="logical" >  T  T  T </v>
   <v type="logical" >  T  T  T </v>
  </varray>
  <nose>
   <v>      -3.00000000       0.00000000       0.00010000       0.00010000 </v>
  </nose>
 </structure>
</modeling>
