unknown system                          
           1
    10.890000    0.000000    0.000000
     0.000000   10.890000    0.000000
     0.000000    0.000000   27.705000
   Cu   H 
   144     2
Direct configuration=     1
   0.00000000  0.00000000  0.00000000
   0.00000000  0.33333333  0.00000000
   0.00000000  0.66666667  0.00000000
   0.33333333  0.00000000  0.00000000
   0.33333333  0.33333333  0.00000000
   0.33333333  0.66666667  0.00000000
   0.66666667  0.00000000  0.00000000
   0.66666667  0.33333333  0.00000000
   0.66666667  0.66666667  0.00000000
   0.16666667  0.16666667  0.00000000
   0.16666667  0.50000000  0.00000000
   0.16666667  0.83333333  0.00000000
   0.50000000  0.16666667  0.00000000
   0.50000000  0.50000000  0.00000000
   0.50000000  0.83333333  0.00000000
   0.83333333  0.16666667  0.00000000
   0.83333333  0.50000000  0.00000000
   0.83333333  0.83333333  0.00000000
   0.00000000  0.16666667  0.06551164
   0.00000000  0.50000000  0.06551164
   0.00000000  0.83333333  0.06551164
   0.33333333  0.16666667  0.06551164
   0.33333333  0.50000000  0.06551164
   0.33333333  0.83333333  0.06551164
   0.66666667  0.16666667  0.06551164
   0.66666667  0.50000000  0.06551164
   0.66666667  0.83333333  0.06551164
   0.16666667  0.00000000  0.06551164
   0.16666667  0.33333333  0.06551164
   0.16666667  0.66666667  0.06551164
   0.50000000  0.00000000  0.06551164
   0.50000000  0.33333333  0.06551164
   0.50000000  0.66666667  0.06551164
   0.83333333  0.00000000  0.06551164
   0.83333333  0.33333333  0.06551164
   0.83333333  0.66666667  0.06551164
   0.00000000  0.00000000  0.13119553
   0.00000000  0.33333333  0.13119553
   0.00000000  0.66666667  0.13119553
   0.33333333  0.00000000  0.13119553
   0.33333333  0.33333333  0.13119553
   0.33333333  0.66666667  0.13119553
   0.66666667  0.00000000  0.13119553
   0.66666667  0.33333333  0.13119553
   0.66666667  0.66666667  0.13119553
   0.16666667  0.16666667  0.13119553
   0.16666667  0.50000000  0.13119553
   0.16666667  0.83333333  0.13119553
   0.50000000  0.16666667  0.13119553
   0.50000000  0.50000000  0.13119553
   0.50000000  0.83333333  0.13119553
   0.83333333  0.16666667  0.13119553
   0.83333333  0.50000000  0.13119553
   0.83333333  0.83333333  0.13119553
   0.00000000  0.16666667  0.19620680
   0.00000000  0.50000000  0.19620680
   0.00000000  0.83333333  0.19620680
   0.33333333  0.16666667  0.19620680
   0.33333333  0.50000000  0.19620680
   0.33333333  0.83333333  0.19620680
   0.66666667  0.16666667  0.19620680
   0.66666667  0.50000000  0.19620680
   0.66666667  0.83333333  0.19620680
   0.16666667  0.00000000  0.19620680
   0.16666667  0.33333333  0.19620680
   0.16666667  0.66666667  0.19620680
   0.50000000  0.00000000  0.19620680
   0.50000000  0.33333333  0.19620680
   0.50000000  0.66666667  0.19620680
   0.83333333  0.00000000  0.19620680
   0.83333333  0.33333333  0.19620680
   0.83333333  0.66666667  0.19620680
   0.00000000  0.00000000  0.25873860
   0.00000000  0.33333333  0.25873860
   0.00000000  0.66666667  0.25873860
   0.33333333  0.00000000  0.25873860
   0.33333333  0.33333333  0.25873860
   0.33333333  0.66666667  0.25873860
   0.66666667  0.00000000  0.25873860
   0.66666667  0.33333333  0.25873860
   0.66666667  0.66666667  0.25873860
   0.16666667  0.16666667  0.25873860
   0.16666667  0.50000000  0.25873860
   0.16666667  0.83333333  0.25873860
   0.50000000  0.16666667  0.25873860
   0.50000000  0.50000000  0.25873860
   0.50000000  0.83333333  0.25873860
   0.83333333  0.16666667  0.25873860
   0.83333333  0.50000000  0.25873860
   0.83333333  0.83333333  0.25873860
   0.00000000  0.16666667  0.32119954
   0.00000000  0.50000000  0.32119954
   0.00000000  0.83333333  0.32119954
   0.33333333  0.16666667  0.32119954
   0.33333333  0.50000000  0.32119954
   0.33333333  0.83333333  0.32119954
   0.66666667  0.16666667  0.32119954
   0.66666667  0.50000000  0.32119954
   0.66666667  0.83333333  0.32119954
   0.16666667  0.00000000  0.32119954
   0.16666667  0.33333333  0.32119954
   0.16666667  0.66666667  0.32119954
   0.50000000  0.00000000  0.32119954
   0.50000000  0.33333333  0.32119954
   0.50000000  0.66666667  0.32119954
   0.83333333  0.00000000  0.32119954
   0.83333333  0.33333333  0.32119954
   0.83333333  0.66666667  0.32119954
   0.00000000  0.00000000  0.38476372
   0.00000000  0.33333333  0.38476372
   0.00000000  0.66666667  0.38476372
   0.33333333  0.00000000  0.38476372
   0.33333333  0.33333333  0.38476372
   0.33333333  0.66666667  0.38476372
   0.66666667  0.00000000  0.38476372
   0.66666667  0.33333333  0.38476372
   0.66666667  0.66666667  0.38476372
   0.16666667  0.16666667  0.38476372
   0.16666667  0.50000000  0.38476372
   0.16666667  0.83333333  0.38476372
   0.50000000  0.16666667  0.38476372
   0.50000000  0.50000000  0.38476372
   0.50000000  0.83333333  0.38476372
   0.83333333  0.16666667  0.38476372
   0.83333333  0.50000000  0.38476372
   0.83333333  0.83333333  0.38476372
   0.00000000  0.16666667  0.44736473
   0.00000000  0.50000000  0.44736473
   0.00000000  0.83333333  0.44736473
   0.33333333  0.16666667  0.44736473
   0.33333333  0.50000000  0.44736473
   0.33333333  0.83333333  0.44736473
   0.66666667  0.16666667  0.44736473
   0.66666667  0.50000000  0.44736473
   0.66666667  0.83333333  0.44736473
   0.16666667  0.00000000  0.44736473
   0.16666667  0.33333333  0.44736473
   0.16666667  0.66666667  0.44736473
   0.50000000  0.00000000  0.44736473
   0.50000000  0.33333333  0.44736473
   0.50000000  0.66666667  0.44736473
   0.83333333  0.00000000  0.44736473
   0.83333333  0.33333333  0.44736473
   0.83333333  0.66666667  0.44736473
   0.33333333  0.33333333  0.50150658
   0.33333333  0.33333333  0.52843313
Direct configuration=     2
   0.00000000  0.00000000  0.00000000
   0.00000000  0.33333333  0.00000000
   0.00000000  0.66666667  0.00000000
   0.33333333  0.00000000  0.00000000
   0.33333333  0.33333333  0.00000000
   0.33333333  0.66666667  0.00000000
   0.66666667  0.00000000  0.00000000
   0.66666667  0.33333333  0.00000000
   0.66666667  0.66666667  0.00000000
   0.16666667  0.16666667  0.00000000
   0.16666667  0.50000000  0.00000000
   0.16666667  0.83333333  0.00000000
   0.50000000  0.16666667  0.00000000
   0.50000000  0.50000000  0.00000000
   0.50000000  0.83333333  0.00000000
   0.83333333  0.16666667  0.00000000
   0.83333333  0.50000000  0.00000000
   0.83333333  0.83333333  0.00000000
   0.00000000  0.16666667  0.06551164
   0.00000000  0.50000000  0.06551164
   0.00000000  0.83333333  0.06551164
   0.33333333  0.16666667  0.06551164
   0.33333333  0.50000000  0.06551164
   0.33333333  0.83333333  0.06551164
   0.66666667  0.16666667  0.06551164
   0.66666667  0.50000000  0.06551164
   0.66666667  0.83333333  0.06551164
   0.16666667  0.00000000  0.06551164
   0.16666667  0.33333333  0.06551164
   0.16666667  0.66666667  0.06551164
   0.50000000  0.00000000  0.06551164
   0.50000000  0.33333333  0.06551164
   0.50000000  0.66666667  0.06551164
   0.83333333  0.00000000  0.06551164
   0.83333333  0.33333333  0.06551164
   0.83333333  0.66666667  0.06551164
   0.00000000  0.00000000  0.13119553
   0.00000000  0.33333333  0.13119553
   0.00000000  0.66666667  0.13119553
   0.33333333  0.00000000  0.13119553
   0.33333333  0.33333333  0.13119553
   0.33333333  0.66666667  0.13119553
   0.66666667  0.00000000  0.13119553
   0.66666667  0.33333333  0.13119553
   0.66666667  0.66666667  0.13119553
   0.16666667  0.16666667  0.13119553
   0.16666667  0.50000000  0.13119553
   0.16666667  0.83333333  0.13119553
   0.50000000  0.16666667  0.13119553
   0.50000000  0.50000000  0.13119553
   0.50000000  0.83333333  0.13119553
   0.83333333  0.16666667  0.13119553
   0.83333333  0.50000000  0.13119553
   0.83333333  0.83333333  0.13119553
   0.00000869  0.16666510  0.19574852
   0.00000869  0.50000157  0.19574852
  -0.00000936  0.83333333  0.19573662
   0.33333333  0.16666774  0.19574945
   0.33333333  0.49999892  0.19574945
   0.33333333  0.83333333  0.19572505
   0.66665798  0.16666510  0.19574852
   0.66665798  0.50000157  0.19574852
   0.66667602  0.83333333  0.19573662
   0.16666510  0.00000869  0.19574852
   0.16666774  0.33333333  0.19574945
   0.16666510  0.66665798  0.19574852
   0.50000157  0.00000869  0.19574852
   0.49999892  0.33333333  0.19574945
   0.50000157  0.66665798  0.19574852
   0.83333333 -0.00000936  0.19573662
   0.83333333  0.33333333  0.19572505
   0.83333333  0.66667602  0.19573662
   0.00000196  0.00000196  0.25868500
  -0.00003345  0.33333333  0.25866708
   0.00000196  0.66666470  0.25868500
   0.33333333 -0.00003345  0.25866708
   0.33333333  0.33333333  0.25872486
   0.33333333  0.66670012  0.25866708
   0.66666470  0.00000196  0.25868500
   0.66670012  0.33333333  0.25866708
   0.66666470  0.66666470  0.25868500
   0.16665912  0.16665912  0.25869407
   0.16665912  0.50000755  0.25869407
   0.16667079  0.83333333  0.25868710
   0.50000755  0.16665912  0.25869407
   0.50000755  0.50000755  0.25869407
   0.49999588  0.83333333  0.25868710
   0.83333333  0.16667079  0.25868710
   0.83333333  0.49999588  0.25868710
   0.83333333  0.83333333  0.25869145
   0.00001358  0.16666158  0.32129657
   0.00001358  0.50000509  0.32129657
  -0.00000397  0.83333333  0.32128549
   0.33333333  0.16666134  0.32125231
   0.33333333  0.50000532  0.32125231
   0.33333333  0.83333333  0.32130298
   0.66665308  0.16666158  0.32129657
   0.66665308  0.50000509  0.32129657
   0.66667063  0.83333333  0.32128549
   0.16666158  0.00001358  0.32129657
   0.16666134  0.33333333  0.32125231
   0.16666158  0.66665308  0.32129657
   0.50000509  0.00001358  0.32129657
   0.50000532  0.33333333  0.32125231
   0.50000509  0.66665308  0.32129657
   0.83333333 -0.00000397  0.32128549
   0.83333333  0.33333333  0.32130298
   0.83333333  0.66667063  0.32128549
  -0.00000628 -0.00000628  0.38479985
  -0.00004221  0.33333333  0.38481888
  -0.00000628  0.66667294  0.38479985
   0.33333333 -0.00004221  0.38481888
   0.33333333  0.33333333  0.38464504
   0.33333333  0.66670888  0.38481888
   0.66667294 -0.00000628  0.38479985
   0.66670888  0.33333333  0.38481888
   0.66667294  0.66667294  0.38479985
   0.16671226  0.16671226  0.38484349
   0.16671226  0.49995441  0.38484349
   0.16666516  0.83333333  0.38480289
   0.49995441  0.16671226  0.38484349
   0.49995441  0.49995441  0.38484349
   0.50000151  0.83333333  0.38480289
   0.83333333  0.16666516  0.38480289
   0.83333333  0.50000151  0.38480289
   0.83333333  0.83333333  0.38480146
   0.00003779  0.16668660  0.44736603
   0.00003779  0.49998007  0.44736603
  -0.00000182  0.83333333  0.44735470
   0.33333333  0.16582183  0.44710582
   0.33333333  0.50084483  0.44710582
   0.33333333  0.83333333  0.44736351
   0.66662888  0.16668660  0.44736603
   0.66662888  0.49998007  0.44736603
   0.66666848  0.83333333  0.44735470
   0.16668660  0.00003779  0.44736603
   0.16582183  0.33333333  0.44710582
   0.16668660  0.66662888  0.44736603
   0.49998007  0.00003779  0.44736603
   0.50084483  0.33333333  0.44710582
   0.49998007  0.66662888  0.44736603
   0.83333333 -0.00000182  0.44735470
   0.83333333  0.33333333  0.44736351
   0.83333333  0.66666848  0.44735470
   0.33333333  0.33333333  0.50048777
   0.33333333  0.33333333  0.53040573
Direct configuration=     3
   0.00000000  0.00000000  0.00000000
   0.00000000  0.33333333  0.00000000
   0.00000000  0.66666667  0.00000000
   0.33333333  0.00000000  0.00000000
   0.33333333  0.33333333  0.00000000
   0.33333333  0.66666667  0.00000000
   0.66666667  0.00000000  0.00000000
   0.66666667  0.33333333  0.00000000
   0.66666667  0.66666667  0.00000000
   0.16666667  0.16666667  0.00000000
   0.16666667  0.50000000  0.00000000
   0.16666667  0.83333333  0.00000000
   0.50000000  0.16666667  0.00000000
   0.50000000  0.50000000  0.00000000
   0.50000000  0.83333333  0.00000000
   0.83333333  0.16666667  0.00000000
   0.83333333  0.50000000  0.00000000
   0.83333333  0.83333333  0.00000000
   0.00000000  0.16666667  0.06551164
   0.00000000  0.50000000  0.06551164
   0.00000000  0.83333333  0.06551164
   0.33333333  0.16666667  0.06551164
   0.33333333  0.50000000  0.06551164
   0.33333333  0.83333333  0.06551164
   0.66666667  0.16666667  0.06551164
   0.66666667  0.50000000  0.06551164
   0.66666667  0.83333333  0.06551164
   0.16666667  0.00000000  0.06551164
   0.16666667  0.33333333  0.06551164
   0.16666667  0.66666667  0.06551164
   0.50000000  0.00000000  0.06551164
   0.50000000  0.33333333  0.06551164
   0.50000000  0.66666667  0.06551164
   0.83333333  0.00000000  0.06551164
   0.83333333  0.33333333  0.06551164
   0.83333333  0.66666667  0.06551164
   0.00000000  0.00000000  0.13119553
   0.00000000  0.33333333  0.13119553
   0.00000000  0.66666667  0.13119553
   0.33333333  0.00000000  0.13119553
   0.33333333  0.33333333  0.13119553
   0.33333333  0.66666667  0.13119553
   0.66666667  0.00000000  0.13119553
   0.66666667  0.33333333  0.13119553
   0.66666667  0.66666667  0.13119553
   0.16666667  0.16666667  0.13119553
   0.16666667  0.50000000  0.13119553
   0.16666667  0.83333333  0.13119553
   0.50000000  0.16666667  0.13119553
   0.50000000  0.50000000  0.13119553
   0.50000000  0.83333333  0.13119553
   0.83333333  0.16666667  0.13119553
   0.83333333  0.50000000  0.13119553
   0.83333333  0.83333333  0.13119553
   0.00000715  0.16666538  0.19582945
   0.00000715  0.50000129  0.19582945
  -0.00000770  0.83333333  0.19581965
   0.33333333  0.16666755  0.19583022
   0.33333333  0.49999911  0.19583022
   0.33333333  0.83333333  0.19581012
   0.66665951  0.16666538  0.19582945
   0.66665951  0.50000129  0.19582945
   0.66667437  0.83333333  0.19581965
   0.16666538  0.00000715  0.19582945
   0.16666755  0.33333333  0.19583022
   0.16666538  0.66665951  0.19582945
   0.50000129  0.00000715  0.19582945
   0.49999911  0.33333333  0.19583022
   0.50000129  0.66665951  0.19582945
   0.83333333 -0.00000770  0.19581965
   0.83333333  0.33333333  0.19581012
   0.83333333  0.66667437  0.19581965
   0.00000162  0.00000162  0.25869446
  -0.00002755  0.33333333  0.25867971
   0.00000162  0.66666505  0.25869446
   0.33333333 -0.00002755  0.25867971
   0.33333333  0.33333333  0.25872728
   0.33333333  0.66669421  0.25867971
   0.66666505  0.00000162  0.25869446
   0.66669421  0.33333333  0.25867971
   0.66666505  0.66666505  0.25869446
   0.16666045  0.16666045  0.25870193
   0.16666045  0.50000621  0.25870193
   0.16667006  0.83333333  0.25869619
   0.50000621  0.16666045  0.25870193
   0.50000621  0.50000621  0.25870193
   0.49999661  0.83333333  0.25869619
   0.83333333  0.16667006  0.25869619
   0.83333333  0.49999661  0.25869619
   0.83333333  0.83333333  0.25869978
   0.00001119  0.16666248  0.32127943
   0.00001119  0.50000419  0.32127943
  -0.00000327  0.83333333  0.32127031
   0.33333333  0.16666228  0.32124299
   0.33333333  0.50000438  0.32124299
   0.33333333  0.83333333  0.32128472
   0.66665548  0.16666248  0.32127943
   0.66665548  0.50000419  0.32127943
   0.66666993  0.83333333  0.32127031
   0.16666248  0.00001119  0.32127943
   0.16666228  0.33333333  0.32124299
   0.16666248  0.66665548  0.32127943
   0.50000419  0.00001119  0.32127943
   0.50000438  0.33333333  0.32124299
   0.50000419  0.66665548  0.32127943
   0.83333333 -0.00000327  0.32127031
   0.83333333  0.33333333  0.32128472
   0.83333333  0.66666993  0.32127031
  -0.00000517 -0.00000517  0.38479347
  -0.00003476  0.33333333  0.38480914
  -0.00000517  0.66667184  0.38479347
   0.33333333 -0.00003476  0.38480914
   0.33333333  0.33333333  0.38466600
   0.33333333  0.66670143  0.38480914
   0.66667184 -0.00000517  0.38479347
   0.66670143  0.33333333  0.38480914
   0.66667184  0.66667184  0.38479347
   0.16670421  0.16670421  0.38482940
   0.16670421  0.49996246  0.38482940
   0.16666543  0.83333333  0.38479597
   0.49996246  0.16670421  0.38482940
   0.49996246  0.49996246  0.38482940
   0.50000124  0.83333333  0.38479597
   0.83333333  0.16666543  0.38479597
   0.83333333  0.50000124  0.38479597
   0.83333333  0.83333333  0.38479480
   0.00003111  0.16668308  0.44736580
   0.00003111  0.49998359  0.44736580
  -0.00000150  0.83333333  0.44735647
   0.33333333  0.16597103  0.44715154
   0.33333333  0.50069564  0.44715154
   0.33333333  0.83333333  0.44736372
   0.66663555  0.16668308  0.44736580
   0.66663555  0.49998359  0.44736580
   0.66666816  0.83333333  0.44735647
   0.16668308  0.00003111  0.44736580
   0.16597103  0.33333333  0.44715154
   0.16668308  0.66663555  0.44736580
   0.49998359  0.00003111  0.44736580
   0.50069564  0.33333333  0.44715154
   0.49998359  0.66663555  0.44736580
   0.83333333 -0.00000150  0.44735647
   0.83333333  0.33333333  0.44736372
   0.83333333  0.66666816  0.44735647
   0.33333333  0.33333333  0.50066768
   0.33333333  0.33333333  0.53005738
Direct configuration=     4
   0.00000000  0.00000000  0.00000000
   0.00000000  0.33333333  0.00000000
   0.00000000  0.66666667  0.00000000
   0.33333333  0.00000000  0.00000000
   0.33333333  0.33333333  0.00000000
   0.33333333  0.66666667  0.00000000
   0.66666667  0.00000000  0.00000000
   0.66666667  0.33333333  0.00000000
   0.66666667  0.66666667  0.00000000
   0.16666667  0.16666667  0.00000000
   0.16666667  0.50000000  0.00000000
   0.16666667  0.83333333  0.00000000
   0.50000000  0.16666667  0.00000000
   0.50000000  0.50000000  0.00000000
   0.50000000  0.83333333  0.00000000
   0.83333333  0.16666667  0.00000000
   0.83333333  0.50000000  0.00000000
   0.83333333  0.83333333  0.00000000
   0.00000000  0.16666667  0.06551164
   0.00000000  0.50000000  0.06551164
   0.00000000  0.83333333  0.06551164
   0.33333333  0.16666667  0.06551164
   0.33333333  0.50000000  0.06551164
   0.33333333  0.83333333  0.06551164
   0.66666667  0.16666667  0.06551164
   0.66666667  0.50000000  0.06551164
   0.66666667  0.83333333  0.06551164
   0.16666667  0.00000000  0.06551164
   0.16666667  0.33333333  0.06551164
   0.16666667  0.66666667  0.06551164
   0.50000000  0.00000000  0.06551164
   0.50000000  0.33333333  0.06551164
   0.50000000  0.66666667  0.06551164
   0.83333333  0.00000000  0.06551164
   0.83333333  0.33333333  0.06551164
   0.83333333  0.66666667  0.06551164
   0.00000000  0.00000000  0.13119553
   0.00000000  0.33333333  0.13119553
   0.00000000  0.66666667  0.13119553
   0.33333333  0.00000000  0.13119553
   0.33333333  0.33333333  0.13119553
   0.33333333  0.66666667  0.13119553
   0.66666667  0.00000000  0.13119553
   0.66666667  0.33333333  0.13119553
   0.66666667  0.66666667  0.13119553
   0.16666667  0.16666667  0.13119553
   0.16666667  0.50000000  0.13119553
   0.16666667  0.83333333  0.13119553
   0.50000000  0.16666667  0.13119553
   0.50000000  0.50000000  0.13119553
   0.50000000  0.83333333  0.13119553
   0.83333333  0.16666667  0.13119553
   0.83333333  0.50000000  0.13119553
   0.83333333  0.83333333  0.13119553
   0.00001806  0.16666128  0.19525134
   0.00001806  0.50000538  0.19525134
  -0.00001840  0.83333333  0.19522733
   0.33333333  0.16667437  0.19525686
   0.33333333  0.49999230  0.19525686
   0.33333333  0.83333333  0.19520009
   0.66664860  0.16666128  0.19525134
   0.66664860  0.50000538  0.19525134
   0.66668507  0.83333333  0.19522733
   0.16666128  0.00001806  0.19525134
   0.16667437  0.33333333  0.19525686
   0.16666128  0.66664860  0.19525134
   0.50000538  0.00001806  0.19525134
   0.49999230  0.33333333  0.19525686
   0.50000538  0.66664860  0.19525134
   0.83333333 -0.00001840  0.19522733
   0.83333333  0.33333333  0.19520009
   0.83333333  0.66668507  0.19522733
   0.00000366  0.00000366  0.25856908
  -0.00007830  0.33333333  0.25853184
   0.00000366  0.66666301  0.25856908
   0.33333333 -0.00007830  0.25853184
   0.33333333  0.33333333  0.25864846
   0.33333333  0.66674497  0.25853184
   0.66666301  0.00000366  0.25856908
   0.66674497  0.33333333  0.25853184
   0.66666301  0.66666301  0.25856908
   0.16664679  0.16664679  0.25858699
   0.16664679  0.50001988  0.25858699
   0.16667563  0.83333333  0.25857294
   0.50001988  0.16664679  0.25858699
   0.50001988  0.50001988  0.25858699
   0.49999103  0.83333333  0.25857294
   0.83333333  0.16667563  0.25857294
   0.83333333  0.49999103  0.25857294
   0.83333333  0.83333333  0.25858109
   0.00003171  0.16665951  0.32139289
   0.00003171  0.50000716  0.32139289
  -0.00000527  0.83333333  0.32136861
   0.33333333  0.16662730  0.32129812
   0.33333333  0.50003936  0.32129812
   0.33333333  0.83333333  0.32140565
   0.66663496  0.16665951  0.32139289
   0.66663496  0.50000716  0.32139289
   0.66667193  0.83333333  0.32136861
   0.16665951  0.00003171  0.32139289
   0.16662730  0.33333333  0.32129812
   0.16665951  0.66663496  0.32139289
   0.50000716  0.00003171  0.32139289
   0.50003936  0.33333333  0.32129812
   0.50000716  0.66663496  0.32139289
   0.83333333 -0.00000527  0.32136861
   0.83333333  0.33333333  0.32140565
   0.83333333  0.66667193  0.32136861
  -0.00001054 -0.00001054  0.38485502
  -0.00014308  0.33333333  0.38487137
  -0.00001054  0.66667721  0.38485502
   0.33333333 -0.00014308  0.38487137
   0.33333333  0.33333333  0.38452737
   0.33333333  0.66680975  0.38487137
   0.66667721 -0.00001054  0.38485502
   0.66680975  0.33333333  0.38487137
   0.66667721  0.66667721  0.38485502
   0.16674024  0.16674024  0.38492048
   0.16674024  0.49992642  0.38492048
   0.16665846  0.83333333  0.38486039
   0.49992642  0.16674024  0.38492048
   0.49992642  0.49992642  0.38492048
   0.50000820  0.83333333  0.38486039
   0.83333333  0.16665846  0.38486039
   0.83333333  0.50000820  0.38486039
   0.83333333  0.83333333  0.38485607
   0.00004900  0.16668029  0.44737622
   0.00004900  0.49998638  0.44737622
  -0.00000038  0.83333333  0.44735096
   0.33333333  0.16499086  0.44683835
   0.33333333  0.50167581  0.44683835
   0.33333333  0.83333333  0.44737484
   0.66661766  0.16668029  0.44737622
   0.66661766  0.49998638  0.44737622
   0.66666705  0.83333333  0.44735096
   0.16668029  0.00004900  0.44737622
   0.16499086  0.33333333  0.44683835
   0.16668029  0.66661766  0.44737622
   0.49998638  0.00004900  0.44737622
   0.50167581  0.33333333  0.44683835
   0.49998638  0.66661766  0.44737622
   0.83333333 -0.00000038  0.44735096
   0.83333333  0.33333333  0.44737484
   0.83333333  0.66666705  0.44735096
   0.33333333  0.33333333  0.50165507
   0.33333333  0.33333333  0.53036604
Direct configuration=     5
   0.00000000  0.00000000  0.00000000
   0.00000000  0.33333333  0.00000000
   0.00000000  0.66666667  0.00000000
   0.33333333  0.00000000  0.00000000
   0.33333333  0.33333333  0.00000000
   0.33333333  0.66666667  0.00000000
   0.66666667  0.00000000  0.00000000
   0.66666667  0.33333333  0.00000000
   0.66666667  0.66666667  0.00000000
   0.16666667  0.16666667  0.00000000
   0.16666667  0.50000000  0.00000000
   0.16666667  0.83333333  0.00000000
   0.50000000  0.16666667  0.00000000
   0.50000000  0.50000000  0.00000000
   0.50000000  0.83333333  0.00000000
   0.83333333  0.16666667  0.00000000
   0.83333333  0.50000000  0.00000000
   0.83333333  0.83333333  0.00000000
   0.00000000  0.16666667  0.06551164
   0.00000000  0.50000000  0.06551164
   0.00000000  0.83333333  0.06551164
   0.33333333  0.16666667  0.06551164
   0.33333333  0.50000000  0.06551164
   0.33333333  0.83333333  0.06551164
   0.66666667  0.16666667  0.06551164
   0.66666667  0.50000000  0.06551164
   0.66666667  0.83333333  0.06551164
   0.16666667  0.00000000  0.06551164
   0.16666667  0.33333333  0.06551164
   0.16666667  0.66666667  0.06551164
   0.50000000  0.00000000  0.06551164
   0.50000000  0.33333333  0.06551164
   0.50000000  0.66666667  0.06551164
   0.83333333  0.00000000  0.06551164
   0.83333333  0.33333333  0.06551164
   0.83333333  0.66666667  0.06551164
   0.00000000  0.00000000  0.13119553
   0.00000000  0.33333333  0.13119553
   0.00000000  0.66666667  0.13119553
   0.33333333  0.00000000  0.13119553
   0.33333333  0.33333333  0.13119553
   0.33333333  0.66666667  0.13119553
   0.66666667  0.00000000  0.13119553
   0.66666667  0.33333333  0.13119553
   0.66666667  0.66666667  0.13119553
   0.16666667  0.16666667  0.13119553
   0.16666667  0.50000000  0.13119553
   0.16666667  0.83333333  0.13119553
   0.50000000  0.16666667  0.13119553
   0.50000000  0.50000000  0.13119553
   0.50000000  0.83333333  0.13119553
   0.83333333  0.16666667  0.13119553
   0.83333333  0.50000000  0.13119553
   0.83333333  0.83333333  0.13119553
   0.00002764  0.16665769  0.19474386
   0.00002764  0.50000898  0.19474386
  -0.00002779  0.83333333  0.19470738
   0.33333333  0.16668035  0.19475356
   0.33333333  0.49998632  0.19475356
   0.33333333  0.83333333  0.19466460
   0.66663902  0.16665769  0.19474386
   0.66663902  0.50000898  0.19474386
   0.66669446  0.83333333  0.19470738
   0.16665769  0.00002764  0.19474386
   0.16668035  0.33333333  0.19475356
   0.16665769  0.66663902  0.19474386
   0.50000898  0.00002764  0.19474386
   0.49998632  0.33333333  0.19475356
   0.50000898  0.66663902  0.19474386
   0.83333333 -0.00002779  0.19470738
   0.83333333  0.33333333  0.19466460
   0.83333333  0.66669446  0.19470738
   0.00000545  0.00000545  0.25845901
  -0.00012286  0.33333333  0.25840203
   0.00000545  0.66666122  0.25845901
   0.33333333 -0.00012286  0.25840203
   0.33333333  0.33333333  0.25857927
   0.33333333  0.66678952  0.25840203
   0.66666122  0.00000545  0.25845901
   0.66678952  0.33333333  0.25840203
   0.66666122  0.66666122  0.25845901
   0.16663479  0.16663479  0.25848609
   0.16663479  0.50003187  0.25848609
   0.16668053  0.83333333  0.25846475
   0.50003187  0.16663479  0.25848609
   0.50003187  0.50003187  0.25848609
   0.49998614  0.83333333  0.25846475
   0.83333333  0.16668053  0.25846475
   0.83333333  0.49998614  0.25846475
   0.83333333  0.83333333  0.25847691
   0.00004972  0.16665690  0.32149248
   0.00004972  0.50000976  0.32149248
  -0.00000702  0.83333333  0.32145490
   0.33333333  0.16659660  0.32134651
   0.33333333  0.50007007  0.32134651
   0.33333333  0.83333333  0.32151180
   0.66661694  0.16665690  0.32149248
   0.66661694  0.50000976  0.32149248
   0.66667369  0.83333333  0.32145490
   0.16665690  0.00004972  0.32149248
   0.16659660  0.33333333  0.32134651
   0.16665690  0.66661694  0.32149248
   0.50000976  0.00004972  0.32149248
   0.50007007  0.33333333  0.32134651
   0.50000976  0.66661694  0.32149248
   0.83333333 -0.00000702  0.32145490
   0.83333333  0.33333333  0.32151180
   0.83333333  0.66667369  0.32145490
  -0.00001526 -0.00001526  0.38490906
  -0.00023817  0.33333333  0.38492600
  -0.00001526  0.66668193  0.38490906
   0.33333333 -0.00023817  0.38492600
   0.33333333  0.33333333  0.38440569
   0.33333333  0.66690484  0.38492600
   0.66668193 -0.00001526  0.38490906
   0.66690484  0.33333333  0.38492600
   0.66668193  0.66668193  0.38490906
   0.16677187  0.16677187  0.38500043
   0.16677187  0.49989479  0.38500043
   0.16665235  0.83333333  0.38491693
   0.49989479  0.16677187  0.38500043
   0.49989479  0.49989479  0.38500043
   0.50001431  0.83333333  0.38491693
   0.83333333  0.16665235  0.38491693
   0.83333333  0.50001431  0.38491693
   0.83333333  0.83333333  0.38490986
   0.00006471  0.16667784  0.44738537
   0.00006471  0.49998882  0.44738537
   0.00000060  0.83333333  0.44734613
   0.33333333  0.16413045  0.44656342
   0.33333333  0.50253622  0.44656342
   0.33333333  0.83333333  0.44738459
   0.66660196  0.16667784  0.44738537
   0.66660196  0.49998882  0.44738537
   0.66666607  0.83333333  0.44734613
   0.16667784  0.00006471  0.44738537
   0.16413045  0.33333333  0.44656342
   0.16667784  0.66660196  0.44738537
   0.49998882  0.00006471  0.44738537
   0.50253622  0.33333333  0.44656342
   0.49998882  0.66660196  0.44738537
   0.83333333  0.00000060  0.44734613
   0.83333333  0.33333333  0.44738459
   0.83333333  0.66666607  0.44734613
   0.33333333  0.33333333  0.50252181
   0.33333333  0.33333333  0.53063698
Direct configuration=     6
   0.00000000  0.00000000  0.00000000
   0.00000000  0.33333333  0.00000000
   0.00000000  0.66666667  0.00000000
   0.33333333  0.00000000  0.00000000
   0.33333333  0.33333333  0.00000000
   0.33333333  0.66666667  0.00000000
   0.66666667  0.00000000  0.00000000
   0.66666667  0.33333333  0.00000000
   0.66666667  0.66666667  0.00000000
   0.16666667  0.16666667  0.00000000
   0.16666667  0.50000000  0.00000000
   0.16666667  0.83333333  0.00000000
   0.50000000  0.16666667  0.00000000
   0.50000000  0.50000000  0.00000000
   0.50000000  0.83333333  0.00000000
   0.83333333  0.16666667  0.00000000
   0.83333333  0.50000000  0.00000000
   0.83333333  0.83333333  0.00000000
   0.00000000  0.16666667  0.06551164
   0.00000000  0.50000000  0.06551164
   0.00000000  0.83333333  0.06551164
   0.33333333  0.16666667  0.06551164
   0.33333333  0.50000000  0.06551164
   0.33333333  0.83333333  0.06551164
   0.66666667  0.16666667  0.06551164
   0.66666667  0.50000000  0.06551164
   0.66666667  0.83333333  0.06551164
   0.16666667  0.00000000  0.06551164
   0.16666667  0.33333333  0.06551164
   0.16666667  0.66666667  0.06551164
   0.50000000  0.00000000  0.06551164
   0.50000000  0.33333333  0.06551164
   0.50000000  0.66666667  0.06551164
   0.83333333  0.00000000  0.06551164
   0.83333333  0.33333333  0.06551164
   0.83333333  0.66666667  0.06551164
   0.00000000  0.00000000  0.13119553
   0.00000000  0.33333333  0.13119553
   0.00000000  0.66666667  0.13119553
   0.33333333  0.00000000  0.13119553
   0.33333333  0.33333333  0.13119553
   0.33333333  0.66666667  0.13119553
   0.66666667  0.00000000  0.13119553
   0.66666667  0.33333333  0.13119553
   0.66666667  0.66666667  0.13119553
   0.16666667  0.16666667  0.13119553
   0.16666667  0.50000000  0.13119553
   0.16666667  0.83333333  0.13119553
   0.50000000  0.16666667  0.13119553
   0.50000000  0.50000000  0.13119553